<?xml version="1.0" encoding="UTF-8"?>

<!-- generated on 2022-10-10 22:47:17 by Eclipse SUMO GUI Version 1.13.0
<configuration xmlns:xsi="http://www.w3.org/2001/XMLSchema-instance" xsi:noNamespaceSchemaLocation="http://sumo.dlr.de/xsd/sumoConfiguration.xsd">

    <input>
        <net-file value="E:\gennet\test\test(jtr)\test.net.xml"/>
        <route-files value="E:\gennet\test\test(jtr)\test.rou.xml"/>
        <additional-files value="E:\gennet\test\test(jtr)\add.E2.xml"/>
    </input>

    <output>
        <write-license value="true"/>
        <output-prefix value="OUTPUT-"/>
        <emission-output value="E:\gennet\test\test(jtr)\emission.xml"/>
        <queue-output value="E:\gennet\test\test(jtr)\queue.xml"/>
        <summary-output value="E:\gennet\test\test(jtr)\summary2.xml"/>
    </output>

    <time>
        <begin value="0"/>
        <end value="3600"/>
    </time>

    <processing>
        <default.speeddev value="0"/>
    </processing>

    <report>
        <duration-log.disable value="true"/>
        <no-step-log value="true"/>
    </report>

    <emissions>
        <device.emissions.period value="100"/>
    </emissions>

    <traci_server>
        <remote-port value="14085"/>
    </traci_server>

    <gui_only>
        <gui-settings-file value="E:\gennet\test\test(jtr)\viewsettings.xml"/>
    </gui_only>

</configuration>
-->

<queue-export xmlns:xsi="http://www.w3.org/2001/XMLSchema-instance" xsi:noNamespaceSchemaLocation="http://sumo.dlr.de/xsd/queue_file.xsd">
    <data timestep="0.00">
        <lanes/>
    </data>
    <data timestep="1.00">
        <lanes/>
    </data>
    <data timestep="2.00">
        <lanes/>
    </data>
    <data timestep="3.00">
        <lanes/>
    </data>
    <data timestep="4.00">
        <lanes/>
    </data>
    <data timestep="5.00">
        <lanes/>
    </data>
    <data timestep="6.00">
        <lanes/>
    </data>
    <data timestep="7.00">
        <lanes/>
    </data>
    <data timestep="8.00">
        <lanes/>
    </data>
    <data timestep="9.00">
        <lanes/>
    </data>
    <data timestep="10.00">
        <lanes/>
    </data>
    <data timestep="11.00">
        <lanes/>
    </data>
    <data timestep="12.00">
        <lanes/>
    </data>
    <data timestep="13.00">
        <lanes/>
    </data>
    <data timestep="14.00">
        <lanes/>
    </data>
    <data timestep="15.00">
        <lanes/>
    </data>
    <data timestep="16.00">
        <lanes/>
    </data>
    <data timestep="17.00">
        <lanes/>
    </data>
    <data timestep="18.00">
        <lanes/>
    </data>
    <data timestep="19.00">
        <lanes>
            <lane id="-E6_0" queueing_time="0.00" queueing_length="0.00" queueing_length_experimental="6.23"/>
        </lanes>
    </data>
    <data timestep="20.00">
        <lanes>
            <lane id="-E6_0" queueing_time="0.00" queueing_length="0.00" queueing_length_experimental="6.02"/>
            <lane id="-E8_0" queueing_time="0.00" queueing_length="0.00" queueing_length_experimental="6.31"/>
        </lanes>
    </data>
    <data timestep="21.00">
        <lanes>
            <lane id="-E6_0" queueing_time="1.00" queueing_length="6.01" queueing_length_experimental="6.01"/>
            <lane id="-E8_0" queueing_time="0.00" queueing_length="0.00" queueing_length_experimental="6.01"/>
        </lanes>
    </data>
    <data timestep="22.00">
        <lanes>
            <lane id="-E6_0" queueing_time="2.00" queueing_length="6.00" queueing_length_experimental="6.00"/>
            <lane id="-E6_1" queueing_time="0.00" queueing_length="0.00" queueing_length_experimental="6.32"/>
            <lane id="-E8_0" queueing_time="0.00" queueing_length="0.00" queueing_length_experimental="13.87"/>
            <lane id="-E8_1" queueing_time="1.00" queueing_length="6.00" queueing_length_experimental="6.00"/>
        </lanes>
    </data>
    <data timestep="23.00">
        <lanes>
            <lane id="-E6_0" queueing_time="3.00" queueing_length="6.00" queueing_length_experimental="6.00"/>
            <lane id="-E6_1" queueing_time="0.00" queueing_length="0.00" queueing_length_experimental="6.06"/>
            <lane id="-E8_1" queueing_time="2.00" queueing_length="6.00" queueing_length_experimental="6.00"/>
            <lane id="-E9_2" queueing_time="0.00" queueing_length="0.00" queueing_length_experimental="6.18"/>
        </lanes>
    </data>
    <data timestep="24.00">
        <lanes>
            <lane id="-E6_0" queueing_time="4.00" queueing_length="6.00" queueing_length_experimental="6.00"/>
            <lane id="-E6_1" queueing_time="1.00" queueing_length="6.03" queueing_length_experimental="6.03"/>
            <lane id="-E8_1" queueing_time="3.00" queueing_length="6.00" queueing_length_experimental="6.00"/>
            <lane id="-E9_2" queueing_time="0.00" queueing_length="0.00" queueing_length_experimental="6.02"/>
        </lanes>
    </data>
    <data timestep="25.00">
        <lanes>
            <lane id="-E6_0" queueing_time="5.00" queueing_length="6.00" queueing_length_experimental="6.00"/>
            <lane id="-E6_1" queueing_time="2.00" queueing_length="6.01" queueing_length_experimental="6.01"/>
            <lane id="-E8_0" queueing_time="0.00" queueing_length="0.00" queueing_length_experimental="6.48"/>
            <lane id="-E8_1" queueing_time="4.00" queueing_length="6.00" queueing_length_experimental="6.00"/>
            <lane id="-E9_2" queueing_time="1.00" queueing_length="6.01" queueing_length_experimental="6.01"/>
        </lanes>
    </data>
    <data timestep="26.00">
        <lanes>
            <lane id="-E6_0" queueing_time="6.00" queueing_length="13.51" queueing_length_experimental="13.51"/>
            <lane id="-E6_1" queueing_time="3.00" queueing_length="6.00" queueing_length_experimental="6.00"/>
            <lane id="-E8_0" queueing_time="0.00" queueing_length="0.00" queueing_length_experimental="6.01"/>
            <lane id="-E8_1" queueing_time="5.00" queueing_length="6.00" queueing_length_experimental="6.00"/>
            <lane id="-E9_2" queueing_time="2.00" queueing_length="6.00" queueing_length_experimental="6.00"/>
        </lanes>
    </data>
    <data timestep="27.00">
        <lanes>
            <lane id="-E6_0" queueing_time="7.00" queueing_length="13.51" queueing_length_experimental="13.51"/>
            <lane id="-E6_1" queueing_time="4.00" queueing_length="6.00" queueing_length_experimental="6.00"/>
            <lane id="-E8_0" queueing_time="1.00" queueing_length="6.00" queueing_length_experimental="6.00"/>
            <lane id="-E8_1" queueing_time="6.00" queueing_length="6.00" queueing_length_experimental="6.00"/>
            <lane id="-E8_2" queueing_time="0.00" queueing_length="0.00" queueing_length_experimental="6.40"/>
            <lane id="-E9_2" queueing_time="3.00" queueing_length="6.00" queueing_length_experimental="13.53"/>
        </lanes>
    </data>
    <data timestep="28.00">
        <lanes>
            <lane id="-E6_0" queueing_time="8.00" queueing_length="13.50" queueing_length_experimental="13.50"/>
            <lane id="-E6_1" queueing_time="5.00" queueing_length="6.00" queueing_length_experimental="6.00"/>
            <lane id="-E8_0" queueing_time="2.00" queueing_length="6.00" queueing_length_experimental="13.54"/>
            <lane id="-E8_1" queueing_time="7.00" queueing_length="6.00" queueing_length_experimental="6.00"/>
            <lane id="-E8_2" queueing_time="0.00" queueing_length="0.00" queueing_length_experimental="6.11"/>
            <lane id="-E9_2" queueing_time="4.00" queueing_length="13.51" queueing_length_experimental="13.51"/>
        </lanes>
    </data>
    <data timestep="29.00">
        <lanes>
            <lane id="-E6_0" queueing_time="9.00" queueing_length="13.50" queueing_length_experimental="13.50"/>
            <lane id="-E6_1" queueing_time="6.00" queueing_length="6.00" queueing_length_experimental="6.00"/>
            <lane id="-E6_2" queueing_time="0.00" queueing_length="0.00" queueing_length_experimental="6.19"/>
            <lane id="-E7_2" queueing_time="0.00" queueing_length="0.00" queueing_length_experimental="6.31"/>
            <lane id="-E8_0" queueing_time="3.00" queueing_length="13.51" queueing_length_experimental="13.51"/>
            <lane id="-E8_1" queueing_time="8.00" queueing_length="6.00" queueing_length_experimental="6.00"/>
            <lane id="-E8_2" queueing_time="1.00" queueing_length="6.02" queueing_length_experimental="6.02"/>
            <lane id="-E9_2" queueing_time="5.00" queueing_length="13.50" queueing_length_experimental="13.50"/>
        </lanes>
    </data>
    <data timestep="30.00">
        <lanes>
            <lane id="-E6_0" queueing_time="10.00" queueing_length="13.50" queueing_length_experimental="13.50"/>
            <lane id="-E6_1" queueing_time="7.00" queueing_length="6.00" queueing_length_experimental="6.00"/>
            <lane id="-E6_2" queueing_time="0.00" queueing_length="0.00" queueing_length_experimental="6.05"/>
            <lane id="-E7_2" queueing_time="0.00" queueing_length="0.00" queueing_length_experimental="6.12"/>
            <lane id="-E8_0" queueing_time="4.00" queueing_length="13.50" queueing_length_experimental="13.50"/>
            <lane id="-E8_1" queueing_time="9.00" queueing_length="6.00" queueing_length_experimental="6.00"/>
            <lane id="-E8_2" queueing_time="2.00" queueing_length="6.01" queueing_length_experimental="6.01"/>
            <lane id="-E9_2" queueing_time="6.00" queueing_length="13.50" queueing_length_experimental="13.50"/>
        </lanes>
    </data>
    <data timestep="31.00">
        <lanes>
            <lane id="-E6_0" queueing_time="11.00" queueing_length="13.50" queueing_length_experimental="13.50"/>
            <lane id="-E6_1" queueing_time="8.00" queueing_length="6.00" queueing_length_experimental="6.00"/>
            <lane id="-E6_2" queueing_time="1.00" queueing_length="6.01" queueing_length_experimental="14.09"/>
            <lane id="-E7_2" queueing_time="0.00" queueing_length="0.00" queueing_length_experimental="6.01"/>
            <lane id="-E8_0" queueing_time="5.00" queueing_length="13.50" queueing_length_experimental="13.50"/>
            <lane id="-E8_1" queueing_time="10.00" queueing_length="6.00" queueing_length_experimental="6.00"/>
            <lane id="-E8_2" queueing_time="3.00" queueing_length="6.00" queueing_length_experimental="6.00"/>
            <lane id="-E9_2" queueing_time="7.00" queueing_length="13.50" queueing_length_experimental="13.50"/>
        </lanes>
    </data>
    <data timestep="32.00">
        <lanes>
            <lane id="-E6_0" queueing_time="12.00" queueing_length="13.50" queueing_length_experimental="13.50"/>
            <lane id="-E6_1" queueing_time="9.00" queueing_length="6.00" queueing_length_experimental="6.00"/>
            <lane id="-E6_2" queueing_time="2.00" queueing_length="6.00" queueing_length_experimental="13.56"/>
            <lane id="-E7_2" queueing_time="1.00" queueing_length="6.00" queueing_length_experimental="6.00"/>
            <lane id="-E8_0" queueing_time="6.00" queueing_length="13.50" queueing_length_experimental="13.50"/>
            <lane id="-E8_1" queueing_time="11.00" queueing_length="6.00" queueing_length_experimental="13.55"/>
            <lane id="-E8_2" queueing_time="4.00" queueing_length="6.00" queueing_length_experimental="6.00"/>
            <lane id="-E9_2" queueing_time="8.00" queueing_length="13.50" queueing_length_experimental="13.50"/>
        </lanes>
    </data>
    <data timestep="33.00">
        <lanes>
            <lane id="-E6_0" queueing_time="13.00" queueing_length="13.50" queueing_length_experimental="13.50"/>
            <lane id="-E6_1" queueing_time="10.00" queueing_length="6.00" queueing_length_experimental="6.00"/>
            <lane id="-E6_2" queueing_time="3.00" queueing_length="13.51" queueing_length_experimental="13.51"/>
            <lane id="-E7_2" queueing_time="2.00" queueing_length="6.00" queueing_length_experimental="6.00"/>
            <lane id="-E8_0" queueing_time="7.00" queueing_length="13.50" queueing_length_experimental="13.50"/>
            <lane id="-E8_1" queueing_time="12.00" queueing_length="13.51" queueing_length_experimental="13.51"/>
            <lane id="-E8_2" queueing_time="5.00" queueing_length="6.00" queueing_length_experimental="6.00"/>
            <lane id="-E9_2" queueing_time="9.00" queueing_length="13.50" queueing_length_experimental="13.50"/>
        </lanes>
    </data>
    <data timestep="34.00">
        <lanes>
            <lane id="-E6_0" queueing_time="14.00" queueing_length="13.50" queueing_length_experimental="13.50"/>
            <lane id="-E6_1" queueing_time="11.00" queueing_length="6.00" queueing_length_experimental="6.00"/>
            <lane id="-E6_2" queueing_time="4.00" queueing_length="13.51" queueing_length_experimental="21.22"/>
            <lane id="-E7_2" queueing_time="3.00" queueing_length="6.00" queueing_length_experimental="6.00"/>
            <lane id="-E8_0" queueing_time="8.00" queueing_length="21.03" queueing_length_experimental="21.03"/>
            <lane id="-E8_1" queueing_time="13.00" queueing_length="13.50" queueing_length_experimental="13.50"/>
            <lane id="-E8_2" queueing_time="6.00" queueing_length="6.00" queueing_length_experimental="6.00"/>
            <lane id="-E9_2" queueing_time="10.00" queueing_length="13.50" queueing_length_experimental="21.74"/>
        </lanes>
    </data>
    <data timestep="35.00">
        <lanes>
            <lane id="-E6_0" queueing_time="15.00" queueing_length="13.50" queueing_length_experimental="21.13"/>
            <lane id="-E6_1" queueing_time="12.00" queueing_length="6.00" queueing_length_experimental="6.00"/>
            <lane id="-E6_2" queueing_time="5.00" queueing_length="13.50" queueing_length_experimental="21.11"/>
            <lane id="-E7_2" queueing_time="4.00" queueing_length="6.00" queueing_length_experimental="6.00"/>
            <lane id="-E8_0" queueing_time="9.00" queueing_length="21.02" queueing_length_experimental="21.02"/>
            <lane id="-E8_1" queueing_time="14.00" queueing_length="13.50" queueing_length_experimental="13.50"/>
            <lane id="-E8_2" queueing_time="7.00" queueing_length="6.00" queueing_length_experimental="6.00"/>
            <lane id="-E9_2" queueing_time="11.00" queueing_length="13.50" queueing_length_experimental="21.19"/>
        </lanes>
    </data>
    <data timestep="36.00">
        <lanes>
            <lane id="-E6_0" queueing_time="16.00" queueing_length="21.06" queueing_length_experimental="21.06"/>
            <lane id="-E6_1" queueing_time="13.00" queueing_length="6.00" queueing_length_experimental="6.00"/>
            <lane id="-E6_2" queueing_time="6.00" queueing_length="21.02" queueing_length_experimental="21.02"/>
            <lane id="-E7_2" queueing_time="5.00" queueing_length="6.00" queueing_length_experimental="6.00"/>
            <lane id="-E8_0" queueing_time="10.00" queueing_length="21.00" queueing_length_experimental="21.00"/>
            <lane id="-E8_1" queueing_time="15.00" queueing_length="13.50" queueing_length_experimental="13.50"/>
            <lane id="-E8_2" queueing_time="8.00" queueing_length="6.00" queueing_length_experimental="6.00"/>
            <lane id="-E9_2" queueing_time="12.00" queueing_length="13.50" queueing_length_experimental="21.04"/>
        </lanes>
    </data>
    <data timestep="37.00">
        <lanes>
            <lane id="-E6_0" queueing_time="17.00" queueing_length="21.02" queueing_length_experimental="21.02"/>
            <lane id="-E6_1" queueing_time="14.00" queueing_length="6.00" queueing_length_experimental="6.00"/>
            <lane id="-E6_2" queueing_time="7.00" queueing_length="21.01" queueing_length_experimental="21.01"/>
            <lane id="-E8_0" queueing_time="11.00" queueing_length="21.00" queueing_length_experimental="21.00"/>
            <lane id="-E8_1" queueing_time="16.00" queueing_length="13.50" queueing_length_experimental="13.50"/>
            <lane id="-E8_2" queueing_time="9.00" queueing_length="6.00" queueing_length_experimental="13.77"/>
            <lane id="-E9_2" queueing_time="10.00" queueing_length="21.01" queueing_length_experimental="28.57"/>
        </lanes>
    </data>
    <data timestep="38.00">
        <lanes>
            <lane id="-E6_0" queueing_time="18.00" queueing_length="21.01" queueing_length_experimental="21.01"/>
            <lane id="-E6_1" queueing_time="15.00" queueing_length="6.00" queueing_length_experimental="6.00"/>
            <lane id="-E6_2" queueing_time="8.00" queueing_length="21.00" queueing_length_experimental="21.00"/>
            <lane id="-E7_0" queueing_time="0.00" queueing_length="0.00" queueing_length_experimental="6.17"/>
            <lane id="-E8_0" queueing_time="12.00" queueing_length="21.00" queueing_length_experimental="21.00"/>
            <lane id="-E8_1" queueing_time="17.00" queueing_length="13.50" queueing_length_experimental="13.50"/>
            <lane id="-E8_2" queueing_time="10.00" queueing_length="6.00" queueing_length_experimental="13.52"/>
            <lane id="-E9_2" queueing_time="2.00" queueing_length="28.54" queueing_length_experimental="28.54"/>
        </lanes>
    </data>
    <data timestep="39.00">
        <lanes>
            <lane id="-E6_0" queueing_time="19.00" queueing_length="21.00" queueing_length_experimental="21.00"/>
            <lane id="-E6_1" queueing_time="16.00" queueing_length="6.00" queueing_length_experimental="6.00"/>
            <lane id="-E6_2" queueing_time="9.00" queueing_length="21.00" queueing_length_experimental="21.00"/>
            <lane id="-E7_0" queueing_time="0.00" queueing_length="0.00" queueing_length_experimental="6.03"/>
            <lane id="-E8_0" queueing_time="13.00" queueing_length="21.00" queueing_length_experimental="21.00"/>
            <lane id="-E8_1" queueing_time="18.00" queueing_length="13.50" queueing_length_experimental="13.50"/>
            <lane id="-E8_2" queueing_time="11.00" queueing_length="13.50" queueing_length_experimental="13.50"/>
            <lane id="-E9_2" queueing_time="2.00" queueing_length="28.51" queueing_length_experimental="36.07"/>
        </lanes>
    </data>
    <data timestep="40.00">
        <lanes>
            <lane id="-E6_0" queueing_time="20.00" queueing_length="21.00" queueing_length_experimental="21.00"/>
            <lane id="-E6_1" queueing_time="17.00" queueing_length="6.00" queueing_length_experimental="13.73"/>
            <lane id="-E6_2" queueing_time="10.00" queueing_length="21.00" queueing_length_experimental="21.00"/>
            <lane id="-E7_1" queueing_time="1.00" queueing_length="6.00" queueing_length_experimental="6.00"/>
            <lane id="-E8_0" queueing_time="14.00" queueing_length="21.00" queueing_length_experimental="21.00"/>
            <lane id="-E8_1" queueing_time="19.00" queueing_length="13.50" queueing_length_experimental="21.27"/>
            <lane id="-E8_2" queueing_time="12.00" queueing_length="13.50" queueing_length_experimental="13.50"/>
            <lane id="-E9_2" queueing_time="1.00" queueing_length="36.04" queueing_length_experimental="44.11"/>
        </lanes>
    </data>
    <data timestep="41.00">
        <lanes>
            <lane id="-E6_0" queueing_time="21.00" queueing_length="21.00" queueing_length_experimental="21.00"/>
            <lane id="-E6_1" queueing_time="18.00" queueing_length="6.00" queueing_length_experimental="13.61"/>
            <lane id="-E6_2" queueing_time="11.00" queueing_length="21.00" queueing_length_experimental="21.00"/>
            <lane id="-E7_2" queueing_time="2.00" queueing_length="6.00" queueing_length_experimental="6.00"/>
            <lane id="-E8_0" queueing_time="15.00" queueing_length="21.00" queueing_length_experimental="21.00"/>
            <lane id="-E8_1" queueing_time="20.00" queueing_length="13.50" queueing_length_experimental="21.03"/>
            <lane id="-E8_2" queueing_time="13.00" queueing_length="13.50" queueing_length_experimental="13.50"/>
            <lane id="-E9_2" queueing_time="0.00" queueing_length="0.00" queueing_length_experimental="43.74"/>
        </lanes>
    </data>
    <data timestep="42.00">
        <lanes>
            <lane id="-E6_0" queueing_time="22.00" queueing_length="21.00" queueing_length_experimental="21.00"/>
            <lane id="-E6_1" queueing_time="19.00" queueing_length="13.53" queueing_length_experimental="21.50"/>
            <lane id="-E6_2" queueing_time="12.00" queueing_length="21.00" queueing_length_experimental="21.00"/>
            <lane id="-E7_2" queueing_time="3.00" queueing_length="6.00" queueing_length_experimental="6.00"/>
            <lane id="-E8_0" queueing_time="16.00" queueing_length="21.00" queueing_length_experimental="21.00"/>
            <lane id="-E8_1" queueing_time="21.00" queueing_length="21.00" queueing_length_experimental="21.00"/>
            <lane id="-E8_2" queueing_time="14.00" queueing_length="13.50" queueing_length_experimental="21.04"/>
            <lane id="-E9_2" queueing_time="0.00" queueing_length="0.00" queueing_length_experimental="51.74"/>
        </lanes>
    </data>
    <data timestep="43.00">
        <lanes>
            <lane id="-E6_0" queueing_time="23.00" queueing_length="21.00" queueing_length_experimental="21.00"/>
            <lane id="-E6_1" queueing_time="20.00" queueing_length="13.51" queueing_length_experimental="21.08"/>
            <lane id="-E6_2" queueing_time="13.00" queueing_length="21.00" queueing_length_experimental="21.00"/>
            <lane id="-E7_2" queueing_time="4.00" queueing_length="6.00" queueing_length_experimental="6.00"/>
            <lane id="-E8_0" queueing_time="17.00" queueing_length="21.00" queueing_length_experimental="21.00"/>
            <lane id="-E8_1" queueing_time="22.00" queueing_length="21.00" queueing_length_experimental="21.00"/>
            <lane id="-E8_2" queueing_time="15.00" queueing_length="21.01" queueing_length_experimental="21.01"/>
            <lane id="-E9_2" queueing_time="0.00" queueing_length="0.00" queueing_length_experimental="51.12"/>
        </lanes>
    </data>
    <data timestep="44.00">
        <lanes>
            <lane id="-E6_0" queueing_time="24.00" queueing_length="21.00" queueing_length_experimental="28.51"/>
            <lane id="-E6_1" queueing_time="21.00" queueing_length="21.04" queueing_length_experimental="21.04"/>
            <lane id="-E6_2" queueing_time="14.00" queueing_length="21.00" queueing_length_experimental="21.00"/>
            <lane id="-E7_2" queueing_time="5.00" queueing_length="6.00" queueing_length_experimental="6.00"/>
            <lane id="-E8_0" queueing_time="18.00" queueing_length="21.00" queueing_length_experimental="21.00"/>
            <lane id="-E8_1" queueing_time="23.00" queueing_length="21.00" queueing_length_experimental="21.00"/>
            <lane id="-E8_2" queueing_time="16.00" queueing_length="21.00" queueing_length_experimental="21.00"/>
            <lane id="-E9_2" queueing_time="0.00" queueing_length="0.00" queueing_length_experimental="50.22"/>
        </lanes>
    </data>
    <data timestep="45.00">
        <lanes>
            <lane id="-E6_0" queueing_time="25.00" queueing_length="28.50" queueing_length_experimental="28.50"/>
            <lane id="-E6_1" queueing_time="22.00" queueing_length="21.02" queueing_length_experimental="21.02"/>
            <lane id="-E6_2" queueing_time="15.00" queueing_length="21.00" queueing_length_experimental="21.00"/>
            <lane id="-E7_2" queueing_time="6.00" queueing_length="6.00" queueing_length_experimental="6.00"/>
            <lane id="-E8_0" queueing_time="19.00" queueing_length="28.51" queueing_length_experimental="28.51"/>
            <lane id="-E8_1" queueing_time="24.00" queueing_length="21.00" queueing_length_experimental="21.00"/>
            <lane id="-E8_2" queueing_time="17.00" queueing_length="21.00" queueing_length_experimental="21.00"/>
        </lanes>
    </data>
    <data timestep="46.00">
        <lanes>
            <lane id="-E6_0" queueing_time="26.00" queueing_length="28.50" queueing_length_experimental="28.50"/>
            <lane id="-E6_1" queueing_time="23.00" queueing_length="21.01" queueing_length_experimental="21.01"/>
            <lane id="-E6_2" queueing_time="16.00" queueing_length="21.00" queueing_length_experimental="21.00"/>
            <lane id="-E7_2" queueing_time="7.00" queueing_length="6.00" queueing_length_experimental="13.51"/>
            <lane id="-E8_0" queueing_time="20.00" queueing_length="28.50" queueing_length_experimental="28.50"/>
            <lane id="-E8_1" queueing_time="25.00" queueing_length="21.00" queueing_length_experimental="21.00"/>
            <lane id="-E8_2" queueing_time="18.00" queueing_length="21.00" queueing_length_experimental="21.00"/>
            <lane id="-E9_0" queueing_time="0.00" queueing_length="0.00" queueing_length_experimental="6.42"/>
        </lanes>
    </data>
    <data timestep="47.00">
        <lanes>
            <lane id="-E6_0" queueing_time="27.00" queueing_length="28.50" queueing_length_experimental="28.50"/>
            <lane id="-E6_1" queueing_time="24.00" queueing_length="21.00" queueing_length_experimental="28.74"/>
            <lane id="-E6_2" queueing_time="17.00" queueing_length="21.00" queueing_length_experimental="21.00"/>
            <lane id="-E7_2" queueing_time="8.00" queueing_length="13.50" queueing_length_experimental="13.50"/>
            <lane id="-E8_0" queueing_time="21.00" queueing_length="28.50" queueing_length_experimental="28.50"/>
            <lane id="-E8_1" queueing_time="26.00" queueing_length="21.00" queueing_length_experimental="28.82"/>
            <lane id="-E8_2" queueing_time="19.00" queueing_length="21.00" queueing_length_experimental="21.00"/>
            <lane id="-E9_0" queueing_time="0.00" queueing_length="0.00" queueing_length_experimental="6.00"/>
        </lanes>
    </data>
    <data timestep="48.00">
        <lanes>
            <lane id="-E6_0" queueing_time="28.00" queueing_length="28.50" queueing_length_experimental="28.50"/>
            <lane id="-E6_1" queueing_time="25.00" queueing_length="21.00" queueing_length_experimental="28.52"/>
            <lane id="-E6_2" queueing_time="18.00" queueing_length="21.00" queueing_length_experimental="21.00"/>
            <lane id="-E7_2" queueing_time="9.00" queueing_length="13.50" queueing_length_experimental="13.50"/>
            <lane id="-E8_0" queueing_time="22.00" queueing_length="28.50" queueing_length_experimental="28.50"/>
            <lane id="-E8_1" queueing_time="27.00" queueing_length="21.00" queueing_length_experimental="28.66"/>
            <lane id="-E8_2" queueing_time="20.00" queueing_length="21.00" queueing_length_experimental="21.00"/>
            <lane id="-E9_0" queueing_time="1.00" queueing_length="6.00" queueing_length_experimental="6.00"/>
        </lanes>
    </data>
    <data timestep="49.00">
        <lanes>
            <lane id="-E6_0" queueing_time="29.00" queueing_length="28.50" queueing_length_experimental="28.50"/>
            <lane id="-E6_1" queueing_time="26.00" queueing_length="28.51" queueing_length_experimental="28.51"/>
            <lane id="-E6_2" queueing_time="19.00" queueing_length="21.00" queueing_length_experimental="21.00"/>
            <lane id="-E7_0" queueing_time="0.00" queueing_length="0.00" queueing_length_experimental="6.14"/>
            <lane id="-E7_2" queueing_time="10.00" queueing_length="13.50" queueing_length_experimental="13.50"/>
            <lane id="-E8_0" queueing_time="23.00" queueing_length="28.50" queueing_length_experimental="28.50"/>
            <lane id="-E8_1" queueing_time="28.00" queueing_length="28.57" queueing_length_experimental="28.57"/>
            <lane id="-E8_2" queueing_time="21.00" queueing_length="21.00" queueing_length_experimental="21.00"/>
            <lane id="-E9_0" queueing_time="2.00" queueing_length="6.00" queueing_length_experimental="6.00"/>
        </lanes>
    </data>
    <data timestep="50.00">
        <lanes>
            <lane id="-E6_0" queueing_time="30.00" queueing_length="28.50" queueing_length_experimental="28.50"/>
            <lane id="-E6_1" queueing_time="27.00" queueing_length="28.51" queueing_length_experimental="28.51"/>
            <lane id="-E6_2" queueing_time="20.00" queueing_length="21.00" queueing_length_experimental="28.52"/>
            <lane id="-E7_0" queueing_time="1.00" queueing_length="6.06" queueing_length_experimental="6.06"/>
            <lane id="-E7_2" queueing_time="11.00" queueing_length="13.50" queueing_length_experimental="13.50"/>
            <lane id="-E8_0" queueing_time="24.00" queueing_length="36.02" queueing_length_experimental="36.02"/>
            <lane id="-E8_1" queueing_time="29.00" queueing_length="28.51" queueing_length_experimental="28.51"/>
            <lane id="-E8_2" queueing_time="22.00" queueing_length="21.00" queueing_length_experimental="21.00"/>
            <lane id="-E9_0" queueing_time="3.00" queueing_length="6.00" queueing_length_experimental="6.00"/>
            <lane id="-E9_1" queueing_time="0.00" queueing_length="0.00" queueing_length_experimental="6.39"/>
        </lanes>
    </data>
    <data timestep="51.00">
        <lanes>
            <lane id="-E6_0" queueing_time="31.00" queueing_length="28.50" queueing_length_experimental="28.50"/>
            <lane id="-E6_1" queueing_time="28.00" queueing_length="28.50" queueing_length_experimental="28.50"/>
            <lane id="-E6_2" queueing_time="21.00" queueing_length="28.51" queueing_length_experimental="28.51"/>
            <lane id="-E7_0" queueing_time="2.00" queueing_length="6.02" queueing_length_experimental="6.02"/>
            <lane id="-E7_2" queueing_time="12.00" queueing_length="13.50" queueing_length_experimental="13.50"/>
            <lane id="-E8_0" queueing_time="25.00" queueing_length="36.01" queueing_length_experimental="36.01"/>