<?xml version="1.0" encoding="UTF-8"?>

<!-- generated on 2025-07-04 18:36:36 by Eclipse SUMO GUI Version 1.22.0
<sumoConfiguration xmlns:xsi="http://www.w3.org/2001/XMLSchema-instance" xsi:noNamespaceSchemaLocation="http://sumo.dlr.de/xsd/sumoConfiguration.xsd">

    <input>
        <net-file value="D:\Downloads\单交叉口-陈思岐soum\单交叉口-陈思岐\exme.net.xml"/>
        <route-files value="D:\Downloads\单交叉口-陈思岐soum\单交叉口-陈思岐\rou.xml,D:\Downloads\单交叉口-陈思岐soum\单交叉口-陈思岐\bus.rou.xml,D:\Downloads\单交叉口-陈思岐soum\单交叉口-陈思岐\pedestrian.rou.xml"/>
        <additional-files value="D:\Downloads\单交叉口-陈思岐soum\单交叉口-陈思岐\det_e1.add.xml,D:\Downloads\单交叉口-陈思岐soum\单交叉口-陈思岐\det_e1_instant.add.xml,D:\Downloads\单交叉口-陈思岐soum\单交叉口-陈思岐\det_e2.add.xml,D:\Downloads\单交叉口-陈思岐soum\单交叉口-陈思岐\det_e3.add.xml,D:\Downloads\单交叉口-陈思岐soum\单交叉口-陈思岐\busstop_def.add.xml"/>
    </input>

    <output>
        <write-license value="false"/>
        <output-prefix value="OUTPUT-"/>
        <precision value="2"/>
        <human-readable-time value="false"/>
        <netstate-dump value="D:\Downloads\单交叉口-陈思岐soum\单交叉口-陈思岐\output/data_netstate.xml"/>
        <emission-output value="D:\Downloads\单交叉口-陈思岐soum\单交叉口-陈思岐\output/data_emission.xml"/>
        <emission-output.precision value="2"/>
        <queue-output value="D:\Downloads\单交叉口-陈思岐soum\单交叉口-陈思岐\output/data_Queue.xml"/>
        <queue-output.period value="300"/>
        <summary-output value="D:\Downloads\单交叉口-陈思岐soum\单交叉口-陈思岐\output/data_summary.xml"/>
        <summary-output.period value="300"/>
        <person-summary-output value="D:\Downloads\单交叉口-陈思岐soum\单交叉口-陈思岐\output/data_person_summary.xml"/>
        <personinfo-output value="D:\Downloads\单交叉口-陈思岐soum\单交叉口-陈思岐\output/data_personinfo.xml"/>
        <link-output value="D:\Downloads\单交叉口-陈思岐soum\单交叉口-陈思岐\output/data_link.xml"/>
        <collision-output value="D:\Downloads\单交叉口-陈思岐soum\单交叉口-陈思岐\output/data_collision.xml"/>
        <edgedata-output value="D:\Downloads\单交叉口-陈思岐soum\单交叉口-陈思岐\output/data_edges.xml"/>
        <lanedata-output value="D:\Downloads\单交叉口-陈思岐soum\单交叉口-陈思岐\output/data_lanes.xml"/>
        <statistic-output value="D:\Downloads\单交叉口-陈思岐soum\单交叉口-陈思岐\output/data_statistic.xml"/>
    </output>

    <time>
        <begin value="0"/>
        <end value="3600"/>
        <step-length value="1"/>
    </time>

    <processing>
        <no-internal-links value="false"/>
        <ignore-route-errors value="true"/>
        <collision.action value="teleport"/>
        <intermodal-collision.action value="warn"/>
        <collision.stoptime value="0"/>
        <intermodal-collision.stoptime value="0"/>
        <collision.check-junctions value="true"/>
        <max-num-vehicles value="-1"/>
        <max-num-teleports value="-1"/>
        <time-to-teleport value="300"/>
        <time-to-teleport.remove value="false"/>
        <waiting-time-memory value="100"/>
        <max-depart-delay value="-1"/>
        <random-depart-offset value="0"/>
        <lanechange.duration value="0"/>
        <lanechange.overtake-right value="false"/>
        <tls.all-off value="false"/>
        <tls.yellow.min-decel value="3"/>
    </processing>

    <routing>
        <routing-algorithm value="dijkstra"/>
    </routing>

    <report>
        <verbose value="true"/>
        <no-warnings value="true"/>
        <log value="D:\Downloads\单交叉口-陈思岐soum\单交叉口-陈思岐\data_log.xml"/>
        <no-step-log value="true"/>
        <step-log.period value="300"/>
    </report>

    <emissions>
        <device.emissions.period value="300"/>
    </emissions>

    <mesoscopic>
        <mesosim value="false"/>
    </mesoscopic>

    <random_number>
        <random value="false"/>
        <seed value="23423"/>
    </random_number>

    <gui_only>
        <gui-settings-file value="D:\Downloads\单交叉口-陈思岐soum\单交叉口-陈思岐\viewsettings.xml"/>
        <start value="false"/>
        <demo value="false"/>
        <window-size value="800,600"/>
        <window-pos value="100,100"/>
    </gui_only>

</sumoConfiguration>
-->

<emission-export xmlns:xsi="http://www.w3.org/2001/XMLSchema-instance" xsi:noNamespaceSchemaLocation="http://sumo.dlr.de/xsd/emission_file.xsd">
    <timestep time="0.00">
        <vehicle id="east-L0.0" eclass="HBEFA3/PC_G_EU4" CO2="2624.72" CO="164.78" HC="0.81" NOx="1.20" PMx="0.07" fuel="837.22" electricity="0.00" noise="55.94" route="!east-L0" type="vt-car" waiting="0.00" lane="E3_4" pos="5.10" speed="0.00" angle="269.78" x="301.48" y="-36.39"/>
        <vehicle id="east-R0.0" eclass="HBEFA3/PC_G_EU4" CO2="2624.72" CO="164.78" HC="0.81" NOx="1.20" PMx="0.07" fuel="837.22" electricity="0.00" noise="55.94" route="!east-R0" type="vt-car" waiting="0.00" lane="E3_2" pos="5.10" speed="0.00" angle="269.78" x="301.45" y="-28.39"/>
        <vehicle id="east-S0.0" eclass="HBEFA3/PC_G_EU4" CO2="2624.72" CO="164.78" HC="0.81" NOx="1.20" PMx="0.07" fuel="837.22" electricity="0.00" noise="55.94" route="!east-S0" type="vt-car" waiting="0.00" lane="E3_3" pos="5.10" speed="0.00" angle="269.78" x="301.47" y="-32.39"/>
        <vehicle id="north-L0.0" eclass="HBEFA3/PC_G_EU4" CO2="2624.72" CO="164.78" HC="0.81" NOx="1.20" PMx="0.07" fuel="837.22" electricity="0.00" noise="55.94" route="!north-L0" type="vt-car" waiting="0.00" lane="E1_4" pos="5.10" speed="0.00" angle="179.62" x="-47.01" y="149.45"/>
        <vehicle id="north-R0.0" eclass="HBEFA3/HDV" CO2="7380.56" CO="15.20" HC="0.00" NOx="84.89" PMx="2.21" fuel="2321.67" electricity="0.00" noise="67.11" route="!north-R0" type="vt-truck" waiting="0.00" lane="E1_2" pos="10.10" speed="0.00" angle="179.62" x="-54.97" y="144.39"/>
        <vehicle id="north-S0.0" eclass="HBEFA3/PC_G_EU4" CO2="2624.72" CO="164.78" HC="0.81" NOx="1.20" PMx="0.07" fuel="837.22" electricity="0.00" noise="55.94" route="!north-S0" type="vt-car" waiting="0.00" lane="E1_3" pos="5.10" speed="0.00" angle="179.62" x="-51.01" y="149.42"/>
        <vehicle id="south-L0.0" eclass="HBEFA3/PC_G_EU4" CO2="2624.72" CO="164.78" HC="0.81" NOx="1.20" PMx="0.07" fuel="837.22" electricity="0.00" noise="55.94" route="!south-L0" type="vt-car" waiting="0.00" lane="E2_4" pos="5.10" speed="0.00" angle="359.41" x="-40.52" y="-159.47"/>
        <vehicle id="south-R0.0" eclass="HBEFA3/PC_G_EU4" CO2="2624.72" CO="164.78" HC="0.81" NOx="1.20" PMx="0.07" fuel="837.22" electricity="0.00" noise="55.94" route="!south-R0" type="vt-car" waiting="0.00" lane="E2_2" pos="5.10" speed="0.00" angle="359.41" x="-32.52" y="-159.39"/>
        <vehicle id="south-S0.0" eclass="HBEFA3/PC_G_EU4" CO2="2624.72" CO="164.78" HC="0.81" NOx="1.20" PMx="0.07" fuel="837.22" electricity="0.00" noise="55.94" route="!south-S0" type="vt-car" waiting="0.00" lane="E2_3" pos="5.10" speed="0.00" angle="359.41" x="-36.52" y="-159.43"/>
        <vehicle id="west-L0.0" eclass="HBEFA3/PC_G_EU4" CO2="2624.72" CO="164.78" HC="0.81" NOx="1.20" PMx="0.07" fuel="837.22" electricity="0.00" noise="55.94" route="!west-L0" type="vt-car" waiting="0.00" lane="E0_4" pos="5.10" speed="0.00" angle="89.79" x="-271.67" y="-42.55"/>
        <vehicle id="west-R0.0" eclass="HBEFA3/PC_G_EU4" CO2="2624.72" CO="164.78" HC="0.81" NOx="1.20" PMx="0.07" fuel="837.22" electricity="0.00" noise="55.94" route="!west-R0" type="vt-car" waiting="0.00" lane="E0_2" pos="5.10" speed="0.00" angle="89.79" x="-271.64" y="-50.55"/>
        <vehicle id="west-S0.0" eclass="HBEFA3/HDV" CO2="7380.56" CO="15.20" HC="0.00" NOx="84.89" PMx="2.21" fuel="2321.67" electricity="0.00" noise="67.11" route="!west-S0" type="vt-truck" waiting="0.00" lane="E0_3" pos="10.10" speed="0.00" angle="89.79" x="-266.66" y="-46.53"/>
    </timestep>
    <timestep time="300.00">
        <vehicle id="e2w_106.0" eclass="HBEFA3/Bus" CO2="5286.11" CO="20.17" HC="4.85" NOx="60.75" PMx="2.01" fuel="1671.11" electricity="0.00" noise="67.11" route="rt_E2W" type="BUS_A" waiting="0.00" lane="-E0_2" pos="149.00" speed="0.00" angle="269.79" x="-216.36" y="-30.34"/>
        <vehicle id="east-L0.10" eclass="HBEFA3/PC_G_EU4" CO2="2624.72" CO="164.78" HC="0.81" NOx="1.20" PMx="0.07" fuel="837.22" electricity="0.00" noise="55.94" route="!east-L0" type="vt-car" waiting="0.00" lane="E3_4" pos="5.10" speed="0.00" angle="269.78" x="301.48" y="-36.39"/>
        <vehicle id="east-L0.9" eclass="HBEFA3/HDV" CO2="9805.75" CO="17.09" HC="0.00" NOx="91.78" PMx="2.24" fuel="3084.40" electricity="0.00" noise="72.75" route="!east-L0" type="vt-truck" waiting="0.00" lane="E3_4" pos="278.92" speed="10.36" angle="269.78" x="27.67" y="-37.43"/>
        <vehicle id="east-R0.10" eclass="HBEFA3/PC_G_EU4" CO2="2624.72" CO="164.78" HC="0.81" NOx="1.20" PMx="0.07" fuel="837.22" electricity="0.00" noise="55.94" route="!east-R0" type="vt-car" waiting="0.00" lane="E3_2" pos="5.10" speed="0.00" angle="269.78" x="301.45" y="-28.39"/>
        <vehicle id="east-R0.8" eclass="HBEFA3/PC_G_EU4" CO2="0.00" CO="0.00" HC="0.00" NOx="0.00" PMx="0.00" fuel="0.00" electricity="0.00" noise="63.12" route="!east-R0" type="vt-car" waiting="0.00" lane="-E1_2" pos="169.50" speed="13.12" angle="359.62" x="-35.03" y="153.43"/>
        <vehicle id="east-R0.9" eclass="HBEFA3/PC_G_EU4" CO2="0.00" CO="0.00" HC="0.00" NOx="0.00" PMx="0.00" fuel="0.00" electricity="0.00" noise="58.73" route="!east-R0" type="vt-car" waiting="0.00" lane=":J1_21_0" pos="13.24" speed="8.07" angle="328.66" x="-33.02" y="-21.98"/>
        <vehicle id="east-S0.26" eclass="HBEFA3/PC_G_EU4" CO2="2624.72" CO="164.78" HC="0.81" NOx="1.20" PMx="0.07" fuel="837.22" electricity="0.00" noise="55.94" route="!east-S0" type="vt-car" waiting="16.00" lane="E3_3" pos="310.71" speed="0.00" angle="269.78" x="-4.14" y="-33.55"/>
        <vehicle id="east-S0.27" eclass="HBEFA3/PC_G_EU4" CO2="2624.72" CO="164.78" HC="0.81" NOx="1.20" PMx="0.07" fuel="837.22" electricity="0.00" noise="55.94" route="!east-S0" type="vt-car" waiting="15.00" lane="E3_3" pos="303.21" speed="0.00" angle="269.78" x="3.36" y="-33.52"/>
        <vehicle id="east-S0.28" eclass="HBEFA3/PC_G_EU4" CO2="2624.72" CO="164.78" HC="0.81" NOx="1.20" PMx="0.07" fuel="837.22" electricity="0.00" noise="55.94" route="!east-S0" type="vt-car" waiting="14.00" lane="E3_3" pos="295.70" speed="0.00" angle="269.78" x="10.87" y="-33.49"/>
        <vehicle id="east-S0.29" eclass="HBEFA3/PC_G_EU4" CO2="2624.72" CO="164.78" HC="0.81" NOx="1.20" PMx="0.07" fuel="837.22" electricity="0.00" noise="55.94" route="!east-S0" type="vt-car" waiting="11.00" lane="E3_3" pos="288.20" speed="0.00" angle="269.78" x="18.37" y="-33.46"/>
        <vehicle id="east-S0.30" eclass="HBEFA3/PC_G_EU4" CO2="2624.72" CO="164.78" HC="0.81" NOx="1.20" PMx="0.07" fuel="837.22" electricity="0.00" noise="55.94" route="!east-S0" type="vt-car" waiting="10.00" lane="E3_3" pos="280.70" speed="0.00" angle="269.78" x="25.87" y="-33.44"/>
        <vehicle id="east-S0.31" eclass="HBEFA3/PC_G_EU4" CO2="2624.69" CO="164.77" HC="0.81" NOx="1.20" PMx="0.07" fuel="837.21" electricity="0.00" noise="55.94" route="!east-S0" type="vt-car" waiting="8.00" lane="E3_3" pos="273.20" speed="0.00" angle="269.78" x="33.37" y="-33.41"/>
        <vehicle id="east-S0.32" eclass="HBEFA3/PC_G_EU4" CO2="2624.30" CO="164.71" HC="0.81" NOx="1.20" PMx="0.07" fuel="837.09" electricity="0.00" noise="55.94" route="!east-S0" type="vt-car" waiting="6.00" lane="E3_3" pos="258.20" speed="0.00" angle="269.78" x="48.37" y="-33.35"/>
        <vehicle id="east-S0.33" eclass="HBEFA3/PC_G_EU4" CO2="2624.33" CO="164.72" HC="0.81" NOx="1.20" PMx="0.07" fuel="837.10" electricity="0.00" noise="55.82" route="!east-S0" type="vt-car" waiting="4.00" lane="E3_3" pos="250.69" speed="0.00" angle="269.78" x="55.88" y="-33.32"/>
        <vehicle id="east-S0.34" eclass="HBEFA3/PC_G_EU4" CO2="2624.65" CO="164.77" HC="0.81" NOx="1.20" PMx="0.07" fuel="837.20" electricity="0.00" noise="55.94" route="!east-S0" type="vt-car" waiting="7.00" lane="E3_3" pos="265.70" speed="0.00" angle="269.78" x="40.87" y="-33.38"/>
        <vehicle id="east-S0.35" eclass="HBEFA3/PC_G_EU4" CO2="2619.67" CO="164.05" HC="0.81" NOx="1.20" PMx="0.07" fuel="835.61" electricity="0.00" noise="55.74" route="!east-S0" type="vt-car" waiting="3.00" lane="E3_3" pos="243.18" speed="0.04" angle="269.78" x="63.39" y="-33.29"/>
        <vehicle id="east-S0.36" eclass="HBEFA3/HDV" CO2="7435.06" CO="15.25" HC="0.00" NOx="85.19" PMx="2.21" fuel="2338.81" electricity="0.00" noise="67.16" route="!east-S0" type="vt-truck" waiting="0.00" lane="E3_3" pos="235.59" speed="0.11" angle="269.78" x="70.98" y="-33.26"/>
        <vehicle id="east-S0.37" eclass="HBEFA3/PC_G_EU4" CO2="2609.03" CO="162.40" HC="0.80" NOx="1.19" PMx="0.06" fuel="832.22" electricity="0.00" noise="55.88" route="!east-S0" type="vt-car" waiting="0.00" lane="E3_3" pos="222.93" speed="0.12" angle="269.78" x="83.64" y="-33.22"/>
        <vehicle id="east-S0.39" eclass="HBEFA3/HDV" CO2="7507.15" CO="15.31" HC="0.00" NOx="85.41" PMx="2.21" fuel="2361.48" electricity="0.00" noise="66.78" route="!east-S0" type="vt-truck" waiting="0.00" lane="E3_3" pos="215.21" speed="0.40" angle="269.78" x="91.36" y="-33.19"/>
        <vehicle id="east-S0.41" eclass="HBEFA3/PC_G_EU4" CO2="2510.64" CO="154.13" HC="0.76" NOx="1.14" PMx="0.06" fuel="800.83" electricity="0.00" noise="54.19" route="!east-S0" type="vt-car" waiting="0.00" lane="E3_3" pos="201.89" speed="0.48" angle="269.78" x="104.68" y="-33.14"/>
        <vehicle id="east-S0.42" eclass="HBEFA3/PC_G_EU4" CO2="0.00" CO="0.00" HC="0.00" NOx="0.00" PMx="0.00" fuel="0.00" electricity="0.00" noise="52.32" route="!east-S0" type="vt-car" waiting="0.00" lane="E3_3" pos="193.56" speed="0.93" angle="269.78" x="113.01" y="-33.10"/>
        <vehicle id="east-S0.43" eclass="HBEFA3/PC_G_EU4" CO2="0.00" CO="0.00" HC="0.00" NOx="0.00" PMx="0.00" fuel="0.00" electricity="0.00" noise="49.57" route="!east-S0" type="vt-car" waiting="0.00" lane="E3_3" pos="185.02" speed="2.52" angle="269.78" x="121.55" y="-33.07"/>
        <vehicle id="east-S0.44" eclass="HBEFA3/PC_G_EU4" CO2="2232.90" CO="87.67" HC="0.45" NOx="0.90" PMx="0.03" fuel="712.23" electricity="0.00" noise="58.05" route="!east-S0" type="vt-car" waiting="0.00" lane="E3_3" pos="173.47" speed="4.35" angle="269.78" x="133.10" y="-33.03"/>
        <vehicle id="east-S0.46" eclass="HBEFA3/PC_G_EU4" CO2="4640.32" CO="128.27" HC="0.69" NOx="2.02" PMx="0.09" fuel="1480.07" electricity="0.00" noise="66.30" route="!east-S0" type="vt-car" waiting="0.00" lane="E3_3" pos="161.09" speed="5.01" angle="269.78" x="145.48" y="-32.98"/>
        <vehicle id="east-S0.48" eclass="HBEFA3/HDV" CO2="12927.00" CO="21.13" HC="0.00" NOx="124.77" PMx="2.80" fuel="4066.44" electricity="0.00" noise="72.34" route="!east-S0" type="vt-truck" waiting="0.00" lane="E3_3" pos="146.93" speed="2.96" angle="269.78" x="159.64" y="-32.93"/>
        <vehicle id="east-S0.49" eclass="HBEFA3/PC_G_EU4" CO2="2661.53" CO="135.38" HC="0.68" NOx="1.17" PMx="0.06" fuel="848.95" electricity="0.00" noise="58.94" route="!east-S0" type="vt-car" waiting="0.00" lane="E3_3" pos="130.59" speed="1.78" angle="269.78" x="175.98" y="-32.87"/>
        <vehicle id="east-S0.50" eclass="HBEFA3/PC_G_EU4" CO2="2514.14" CO="134.34" HC="0.67" NOx="1.11" PMx="0.05" fuel="801.94" electricity="0.00" noise="57.44" route="!east-S0" type="vt-car" waiting="0.00" lane="E3_3" pos="121.18" speed="1.66" angle="269.78" x="185.39" y="-32.83"/>
        <vehicle id="east-S0.51" eclass="HBEFA3/PC_G_EU4" CO2="2624.72" CO="164.78" HC="0.81" NOx="1.20" PMx="0.07" fuel="837.22" electricity="0.00" noise="55.94" route="!east-S0" type="vt-car" waiting="20.00" lane="E3_3" pos="325.71" speed="0.00" angle="269.78" x="-19.14" y="-33.61"/>
        <vehicle id="east-S0.52" eclass="HBEFA3/PC_G_EU4" CO2="2624.72" CO="164.78" HC="0.81" NOx="1.20" PMx="0.07" fuel="837.22" electricity="0.00" noise="55.94" route="!east-S0" type="vt-car" waiting="19.00" lane="E3_3" pos="318.21" speed="0.00" angle="269.78" x="-11.64" y="-33.58"/>
        <vehicle id="east-S0.53" eclass="HBEFA3/HDV" CO2="9852.57" CO="17.85" HC="0.00" NOx="102.71" PMx="2.47" fuel="3099.30" electricity="0.00" noise="71.75" route="!east-S0" type="vt-truck" waiting="0.00" lane="E3_3" pos="111.70" speed="1.28" angle="269.78" x="194.87" y="-32.79"/>
        <vehicle id="east-S0.54" eclass="HBEFA3/PC_G_EU4" CO2="0.00" CO="0.00" HC="0.00" NOx="0.00" PMx="0.00" fuel="0.00" electricity="0.00" noise="55.88" route="!east-S0" type="vt-car" waiting="0.00" lane="E3_3" pos="97.81" speed="0.67" angle="269.78" x="208.76" y="-32.74"/>
        <vehicle id="east-S0.55" eclass="HBEFA3/HDV" CO2="0.00" CO="0.00" HC="0.00" NOx="0.00" PMx="0.00" fuel="0.00" electricity="0.00" noise="66.02" route="!east-S0" type="vt-truck" waiting="0.00" lane="E3_3" pos="89.34" speed="0.81" angle="269.78" x="217.23" y="-32.71"/>
        <vehicle id="east-S0.56" eclass="HBEFA3/PC_G_EU4" CO2="2601.57" CO="147.47" HC="0.73" NOx="1.17" PMx="0.06" fuel="829.83" electricity="0.00" noise="57.97" route="!east-S0" type="vt-car" waiting="0.00" lane="E3_3" pos="75.58" speed="0.97" angle="269.78" x="230.99" y="-32.66"/>
        <vehicle id="east-S0.57" eclass="HBEFA3/PC_G_EU4" CO2="2506.13" CO="145.96" HC="0.72" NOx="1.12" PMx="0.06" fuel="799.39" electricity="0.00" noise="56.26" route="!east-S0" type="vt-car" waiting="0.00" lane="E3_3" pos="67.08" speed="0.95" angle="269.78" x="239.49" y="-32.62"/>
        <vehicle id="east-S0.58" eclass="HBEFA3/HDV" CO2="8689.36" CO="16.58" HC="0.00" NOx="93.93" PMx="2.34" fuel="2733.38" electricity="0.00" noise="69.81" route="!east-S0" type="vt-truck" waiting="0.00" lane="E3_3" pos="58.63" speed="1.02" angle="269.78" x="247.94" y="-32.59"/>
        <vehicle id="east-S0.59" eclass="HBEFA3/PC_G_EU4" CO2="2580.76" CO="155.17" HC="0.77" NOx="1.17" PMx="0.06" fuel="823.20" electricity="0.00" noise="56.76" route="!east-S0" type="vt-car" waiting="0.00" lane="E3_3" pos="44.87" speed="0.50" angle="269.78" x="261.70" y="-32.54"/>
        <vehicle id="east-S0.60" eclass="HBEFA3/PC_G_EU4" CO2="2590.42" CO="155.20" HC="0.77" NOx="1.17" PMx="0.06" fuel="826.28" electricity="0.00" noise="57.11" route="!east-S0" type="vt-car" waiting="0.00" lane="E3_3" pos="36.77" speed="0.51" angle="269.78" x="269.80" y="-32.51"/>
        <vehicle id="east-S0.61" eclass="HBEFA3/PC_G_EU4" CO2="2578.58" CO="153.14" HC="0.76" NOx="1.17" PMx="0.06" fuel="822.50" electricity="0.00" noise="57.01" route="!east-S0" type="vt-car" waiting="0.00" lane="E3_3" pos="28.70" speed="0.61" angle="269.78" x="277.87" y="-32.48"/>
        <vehicle id="east-S0.62" eclass="HBEFA3/PC_G_EU4" CO2="2558.76" CO="156.90" HC="0.77" NOx="1.16" PMx="0.06" fuel="816.18" electricity="0.00" noise="55.23" route="!east-S0" type="vt-car" waiting="0.00" lane="E3_3" pos="20.40" speed="0.37" angle="269.78" x="286.17" y="-32.45"/>
        <vehicle id="east-S0.63" eclass="HBEFA3/PC_G_EU4" CO2="2552.28" CO="155.58" HC="0.77" NOx="1.16" PMx="0.06" fuel="814.11" electricity="0.00" noise="55.46" route="!east-S0" type="vt-car" waiting="0.00" lane="E3_3" pos="12.21" speed="0.44" angle="269.78" x="294.36" y="-32.42"/>
        <vehicle id="north-L0.10" eclass="HBEFA3/PC_G_EU4" CO2="2624.72" CO="164.78" HC="0.81" NOx="1.20" PMx="0.07" fuel="837.22" electricity="0.00" noise="55.94" route="!north-L0" type="vt-car" waiting="0.00" lane="E1_4" pos="5.10" speed="0.00" angle="179.62" x="-47.01" y="149.45"/>
        <vehicle id="north-L0.8" eclass="HBEFA3/PC_G_EU4" CO2="2624.72" CO="164.78" HC="0.81" NOx="1.20" PMx="0.07" fuel="837.22" electricity="0.00" noise="55.94" route="!north-L0" type="vt-car" waiting="42.00" lane="E1_4" pos="169.70" speed="0.00" angle="179.62" x="-45.93" y="-15.15"/>
        <vehicle id="north-L0.9" eclass="HBEFA3/PC_G_EU4" CO2="2624.72" CO="164.78" HC="0.81" NOx="1.20" PMx="0.07" fuel="837.22" electricity="0.00" noise="55.94" route="!north-L0" type="vt-car" waiting="13.00" lane="E1_4" pos="162.20" speed="0.00" angle="179.62" x="-45.98" y="-7.65"/>
        <vehicle id="north-R0.10" eclass="HBEFA3/PC_G_EU4" CO2="2624.72" CO="164.78" HC="0.81" NOx="1.20" PMx="0.07" fuel="837.22" electricity="0.00" noise="55.94" route="!north-R0" type="vt-car" waiting="0.00" lane="E1_2" pos="5.10" speed="0.00" angle="179.62" x="-55.01" y="149.39"/>
        <vehicle id="north-R0.9" eclass="HBEFA3/PC_G_EU4" CO2="6918.16" CO="114.29" HC="0.69" NOx="2.95" PMx="0.14" fuel="2206.56" electricity="0.00" noise="68.36" route="!north-R0" type="vt-car" waiting="0.00" lane="-E0_2" pos="15.91" speed="10.43" angle="269.79" x="-83.27" y="-29.85"/>
        <vehicle id="north-S0.25" eclass="HBEFA3/PC_G_EU4" CO2="3929.59" CO="150.70" HC="0.78" NOx="1.75" PMx="0.09" fuel="1253.39" electricity="0.00" noise="67.71" route="!north-S0" type="vt-car" waiting="0.00" lane=":J1_18_0" pos="1.46" speed="2.46" angle="179.59" x="-49.91" y="-17.64"/>
        <vehicle id="north-S0.26" eclass="HBEFA3/PC_G_EU4" CO2="2624.72" CO="164.78" HC="0.81" NOx="1.20" PMx="0.07" fuel="837.22" electricity="0.00" noise="55.94" route="!north-S0" type="vt-car" waiting="70.00" lane="E1_3" pos="162.20" speed="0.00" angle="179.62" x="-49.98" y="-7.68"/>
        <vehicle id="north-S0.27" eclass="HBEFA3/PC_G_EU4" CO2="2624.72" CO="164.78" HC="0.81" NOx="1.20" PMx="0.07" fuel="837.22" electricity="0.00" noise="55.94" route="!north-S0" type="vt-car" waiting="68.00" lane="E1_3" pos="154.70" speed="0.00" angle="179.62" x="-50.03" y="-0.18"/>
        <vehicle id="north-S0.28" eclass="HBEFA3/PC_G_EU4" CO2="2624.72" CO="164.78" HC="0.81" NOx="1.20" PMx="0.07" fuel="837.22" electricity="0.00" noise="55.94" route="!north-S0" type="vt-car" waiting="66.00" lane="E1_3" pos="147.20" speed="0.00" angle="179.62" x="-50.07" y="7.32"/>
        <vehicle id="north-S0.29" eclass="HBEFA3/HDV" CO2="7380.56" CO="15.20" HC="0.00" NOx="84.89" PMx="2.21" fuel="2321.67" electricity="0.00" noise="67.11" route="!north-S0" type="vt-truck" waiting="64.00" lane="E1_3" pos="139.69" speed="0.00" angle="179.62" x="-50.12" y="14.83"/>
        <vehicle id="north-S0.30" eclass="HBEFA3/PC_G_EU4" CO2="2624.72" CO="164.78" HC="0.81" NOx="1.20" PMx="0.07" fuel="837.22" electricity="0.00" noise="55.94" route="!north-S0" type="vt-car" waiting="62.00" lane="E1_3" pos="127.19" speed="0.00" angle="179.62" x="-50.21" y="27.33"/>
        <vehicle id="north-S0.31" eclass="HBEFA3/PC_G_EU4" CO2="2624.72" CO="164.78" HC="0.81" NOx="1.20" PMx="0.07" fuel="837.22" electricity="0.00" noise="55.94" route="!north-S0" type="vt-car" waiting="61.00" lane="E1_3" pos="119.69" speed="0.00" angle="179.62" x="-50.25" y="34.83"/>
        <vehicle id="north-S0.32" eclass="HBEFA3/PC_G_EU4" CO2="2624.72" CO="164.78" HC="0.81" NOx="1.20" PMx="0.07" fuel="837.22" electricity="0.00" noise="55.94" route="!north-S0" type="vt-car" waiting="60.00" lane="E1_3" pos="112.19" speed="0.00" angle="179.62" x="-50.30" y="42.33"/>
        <vehicle id="north-S0.33" eclass="HBEFA3/PC_G_EU4" CO2="2624.72" CO="164.78" HC="0.81" NOx="1.20" PMx="0.07" fuel="837.22" electricity="0.00" noise="55.94" route="!north-S0" type="vt-car" waiting="59.00" lane="E1_3" pos="104.69" speed="0.00" angle="179.62" x="-50.35" y="49.83"/>
        <vehicle id="north-S0.34" eclass="HBEFA3/PC_G_EU4" CO2="2624.72" CO="164.78" HC="0.81" NOx="1.20" PMx="0.07" fuel="837.22" electricity="0.00" noise="55.94" route="!north-S0" type="vt-car" waiting="57.00" lane="E1_3" pos="97.19" speed="0.00" angle="179.62" x="-50.40" y="57.33"/>
        <vehicle id="north-S0.35" eclass="HBEFA3/PC_G_EU4" CO2="2624.72" CO="164.78" HC="0.81" NOx="1.20" PMx="0.07" fuel="837.22" electricity="0.00" noise="55.94" route="!north-S0" type="vt-car" waiting="55.00" lane="E1_3" pos="89.69" speed="0.00" angle="179.62" x="-50.45" y="64.83"/>
        <vehicle id="north-S0.36" eclass="HBEFA3/PC_G_EU4" CO2="2624.72" CO="164.78" HC="0.81" NOx="1.20" PMx="0.07" fuel="837.22" electricity="0.00" noise="55.94" route="!north-S0" type="vt-car" waiting="54.00" lane="E1_3" pos="82.19" speed="0.00" angle="179.62" x="-50.50" y="72.33"/>
        <vehicle id="north-S0.37" eclass="HBEFA3/PC_G_EU4" CO2="2624.72" CO="164.78" HC="0.81" NOx="1.20" PMx="0.07" fuel="837.22" electricity="0.00" noise="55.94" route="!north-S0" type="vt-car" waiting="52.00" lane="E1_3" pos="74.69" speed="0.00" angle="179.62" x="-50.55" y="79.83"/>
        <vehicle id="north-S0.38" eclass="HBEFA3/PC_G_EU4" CO2="2624.72" CO="164.78" HC="0.81" NOx="1.20" PMx="0.07" fuel="837.22" electricity="0.00" noise="55.94" route="!north-S0" type="vt-car" waiting="50.00" lane="E1_3" pos="67.19" speed="0.00" angle="179.62" x="-50.60" y="87.33"/>
        <vehicle id="north-S0.39" eclass="HBEFA3/HDV" CO2="7380.56" CO="15.20" HC="0.00" NOx="84.89" PMx="2.21" fuel="2321.67" electricity="0.00" noise="67.11" route="!north-S0" type="vt-truck" waiting="47.00" lane="E1_3" pos="59.68" speed="0.00" angle="179.62" x="-50.65" y="94.84"/>
        <vehicle id="north-S0.40" eclass="HBEFA3/HDV" CO2="7380.56" CO="15.20" HC="0.00" NOx="84.89" PMx="2.21" fuel="2321.67" electricity="0.00" noise="67.11" route="!north-S0" type="vt-truck" waiting="44.00" lane="E1_3" pos="47.18" speed="0.00" angle="179.62" x="-50.73" y="107.34"/>
        <vehicle id="north-S0.41" eclass="HBEFA3/PC_G_EU4" CO2="2624.72" CO="164.78" HC="0.81" NOx="1.20" PMx="0.07" fuel="837.22" electricity="0.00" noise="55.94" route="!north-S0" type="vt-car" waiting="41.00" lane="E1_3" pos="34.68" speed="0.00" angle="179.62" x="-50.81" y="119.84"/>
        <vehicle id="north-S0.42" eclass="HBEFA3/PC_G_EU4" CO2="2624.72" CO="164.78" HC="0.81" NOx="1.20" PMx="0.07" fuel="837.22" electricity="0.00" noise="55.94" route="!north-S0" type="vt-car" waiting="40.00" lane="E1_3" pos="27.18" speed="0.00" angle="179.62" x="-50.86" y="127.34"/>
        <vehicle id="north-S0.43" eclass="HBEFA3/HDV" CO2="7380.56" CO="15.20" HC="0.00" NOx="84.89" PMx="2.21" fuel="2321.67" electricity="0.00" noise="67.11" route="!north-S0" type="vt-truck" waiting="37.00" lane="E1_3" pos="19.68" speed="0.00" angle="179.62" x="-50.91" y="134.84"/>
        <vehicle id="north-S0.44" eclass="HBEFA3/PC_G_EU4" CO2="2624.72" CO="164.78" HC="0.81" NOx="1.20" PMx="0.07" fuel="837.22" electricity="0.00" noise="55.94" route="!north-S0" type="vt-car" waiting="35.00" lane="E1_3" pos="7.18" speed="0.00" angle="179.62" x="-50.99" y="147.34"/>
        <vehicle id="south-L0.10" eclass="HBEFA3/PC_G_EU4" CO2="2624.72" CO="164.78" HC="0.81" NOx="1.20" PMx="0.07" fuel="837.22" electricity="0.00" noise="55.94" route="!south-L0" type="vt-car" waiting="0.00" lane="E2_4" pos="5.10" speed="0.00" angle="359.41" x="-40.52" y="-159.47"/>
        <vehicle id="south-L0.8" eclass="HBEFA3/PC_G_EU4" CO2="2624.72" CO="164.78" HC="0.81" NOx="1.20" PMx="0.07" fuel="837.22" electricity="0.00" noise="55.94" route="!south-L0" type="vt-car" waiting="47.00" lane="E2_4" pos="100.25" speed="0.00" angle="359.41" x="-41.51" y="-64.32"/>
        <vehicle id="south-L0.9" eclass="HBEFA3/PC_G_EU4" CO2="2624.72" CO="164.78" HC="0.81" NOx="1.20" PMx="0.07" fuel="837.22" electricity="0.00" noise="55.94" route="!south-L0" type="vt-car" waiting="19.00" lane="E2_4" pos="92.75" speed="0.00" angle="359.41" x="-41.43" y="-71.82"/>
        <vehicle id="south-R0.10" eclass="HBEFA3/PC_G_EU4" CO2="2624.72" CO="164.78" HC="0.81" NOx="1.20" PMx="0.07" fuel="837.22" electricity="0.00" noise="55.94" route="!south-R0" type="vt-car" waiting="0.00" lane="E2_2" pos="5.10" speed="0.00" angle="359.41" x="-32.52" y="-159.39"/>
        <vehicle id="south-R0.9" eclass="HBEFA3/PC_G_EU4" CO2="4538.65" CO="40.02" HC="0.29" NOx="1.74" PMx="0.07" fuel="1447.62" electricity="0.00" noise="66.12" route="!south-R0" type="vt-car" waiting="0.00" lane="-E3_2" pos="183.00" speed="13.77" angle="89.78" x="162.92" y="-48.92"/>
        <vehicle id="south-S0.28" eclass="HBEFA3/PC_G_EU4" CO2="3180.86" CO="147.37" HC="0.75" NOx="1.42" PMx="0.07" fuel="1014.59" electricity="0.00" noise="64.07" route="!south-S0" type="vt-car" waiting="0.00" lane=":J1_8_0" pos="0.70" speed="1.70" angle="359.42" x="-37.53" y="-62.58"/>
        <vehicle id="south-S0.29" eclass="HBEFA3/PC_G_EU4" CO2="2624.72" CO="164.78" HC="0.81" NOx="1.20" PMx="0.07" fuel="837.22" electricity="0.00" noise="55.94" route="!south-S0" type="vt-car" waiting="68.00" lane="E2_3" pos="92.75" speed="0.00" angle="359.41" x="-37.43" y="-71.78"/>
        <vehicle id="south-S0.30" eclass="HBEFA3/PC_G_EU4" CO2="2624.72" CO="164.78" HC="0.81" NOx="1.20" PMx="0.07" fuel="837.22" electricity="0.00" noise="55.94" route="!south-S0" type="vt-car" waiting="66.00" lane="E2_3" pos="85.25" speed="0.00" angle="359.41" x="-37.35" y="-79.28"/>
        <vehicle id="south-S0.31" eclass="HBEFA3/PC_G_EU4" CO2="2624.72" CO="164.78" HC="0.81" NOx="1.20" PMx="0.07" fuel="837.22" electricity="0.00" noise="55.94" route="!south-S0" type="vt-car" waiting="65.00" lane="E2_3" pos="77.75" speed="0.00" angle="359.41" x="-37.28" y="-86.78"/>
        <vehicle id="south-S0.32" eclass="HBEFA3/PC_G_EU4" CO2="2624.72" CO="164.78" HC="0.81" NOx="1.20" PMx="0.07" fuel="837.22" electricity="0.00" noise="55.94" route="!south-S0" type="vt-car" waiting="63.00" lane="E2_3" pos="70.24" speed="0.00" angle="359.41" x="-37.20" y="-94.29"/>
        <vehicle id="south-S0.33" eclass="HBEFA3/PC_G_EU4" CO2="2624.72" CO="164.78" HC="0.81" NOx="1.20" PMx="0.07" fuel="837.22" electricity="0.00" noise="55.94" route="!south-S0" type="vt-car" waiting="61.00" lane="E2_3" pos="62.74" speed="0.00" angle="359.41" x="-37.12" y="-101.79"/>
        <vehicle id="south-S0.34" eclass="HBEFA3/PC_G_EU4" CO2="2624.72" CO="164.78" HC="0.81" NOx="1.20" PMx="0.07" fuel="837.22" electricity="0.00" noise="55.94" route="!south-S0" type="vt-car" waiting="59.00" lane="E2_3" pos="55.24" speed="0.00" angle="359.41" x="-37.04" y="-109.29"/>
        <vehicle id="south-S0.35" eclass="HBEFA3/PC_G_EU4" CO2="2624.72" CO="164.78" HC="0.81" NOx="1.20" PMx="0.07" fuel="837.22" electricity="0.00" noise="55.94" route="!south-S0" type="vt-car" waiting="57.00" lane="E2_3" pos="47.74" speed="0.00" angle="359.41" x="-36.97" y="-116.79"/>