<?xml version="1.0" encoding="UTF-8"?>

<!-- generated on 2024-05-06 20:28:54 by Eclipse SUMO GUI Version 1.19.0
<configuration xmlns:xsi="http://www.w3.org/2001/XMLSchema-instance" xsi:noNamespaceSchemaLocation="http://sumo.dlr.de/xsd/sumoConfiguration.xsd">

    <input>
        <net-file value="E:\bishe\现状仿真\3.12晚高峰\4.net.xml"/>
        <route-files value="E:\bishe\现状仿真\3.12晚高峰\v_vehs.rou.xml,E:\bishe\现状仿真\3.12晚高峰\pedestrian.rou.xml,E:\bishe\现状仿真\3.12晚高峰\bus.rou.xml"/>
        <additional-files value="E:\bishe\现状仿真\3.12晚高峰\det_e3.add.xml,E:\bishe\现状仿真\3.12晚高峰\det_e2.add.xml,E:\bishe\现状仿真\3.12晚高峰\busstop_def.add.xml"/>
    </input>

    <output>
        <write-license value="false"/>
        <output-prefix value="OUTPUT-"/>
        <precision value="2"/>
        <human-readable-time value="false"/>
        <emission-output value="E:\bishe\现状仿真\3.12晚高峰\output/data_emission.xml"/>
        <emission-output.precision value="2"/>
        <queue-output value="E:\bishe\现状仿真\3.12晚高峰\output/data_Queue.xml"/>
        <queue-output.period value="300"/>
        <summary-output value="E:\bishe\现状仿真\3.12晚高峰\output/data_summary.xml"/>
        <summary-output.period value="300"/>
        <person-summary-output value="E:\bishe\现状仿真\3.12晚高峰\output/data_person_summary.xml"/>
        <personinfo-output value="E:\bishe\现状仿真\3.12晚高峰\output/data_personinfo.xml"/>
        <collision-output value="E:\bishe\现状仿真\3.12晚高峰\output/data_collision.xml"/>
        <edgedata-output value="E:\bishe\现状仿真\3.12晚高峰\output/data_edges.xml"/>
        <lanedata-output value="E:\bishe\现状仿真\3.12晚高峰\output/data_lanes.xml"/>
        <statistic-output value="E:\bishe\现状仿真\3.12晚高峰\output/data_statistic.xml"/>
    </output>

    <time>
        <begin value="0"/>
        <end value="3600"/>
        <step-length value="1"/>
    </time>

    <processing>
        <no-internal-links value="false"/>
        <ignore-route-errors value="true"/>
        <collision.action value="teleport"/>
        <intermodal-collision.action value="warn"/>
        <collision.stoptime value="0"/>
        <intermodal-collision.stoptime value="0"/>
        <collision.check-junctions value="false"/>
        <max-num-vehicles value="-1"/>
        <max-num-teleports value="-1"/>
        <time-to-teleport value="300"/>
        <time-to-teleport.remove value="false"/>
        <waiting-time-memory value="100"/>
        <max-depart-delay value="-1"/>
        <random-depart-offset value="0"/>
        <lanechange.duration value="0"/>
        <lanechange.overtake-right value="false"/>
        <tls.all-off value="false"/>
        <tls.yellow.min-decel value="3"/>
    </processing>

    <routing>
        <routing-algorithm value="dijkstra"/>
    </routing>

    <report>
        <verbose value="true"/>
        <no-warnings value="true"/>
        <log value="E:\bishe\现状仿真\3.12晚高峰\output/data_log.xml"/>
        <no-step-log value="true"/>
        <step-log.period value="300"/>
    </report>

    <emissions>
        <device.emissions.period value="300"/>
    </emissions>

    <mesoscopic>
        <mesosim value="false"/>
    </mesoscopic>

    <random_number>
        <random value="false"/>
        <seed value="23423"/>
    </random_number>

    <gui_only>
        <gui-settings-file value="E:\bishe\现状仿真\3.12晚高峰\viewsettings.xml"/>
        <start value="false"/>
        <demo value="false"/>
        <window-size value="800,600"/>
        <window-pos value="100,100"/>
    </gui_only>

</configuration>
-->

<emission-export xmlns:xsi="http://www.w3.org/2001/XMLSchema-instance" xsi:noNamespaceSchemaLocation="http://sumo.dlr.de/xsd/emission_file.xsd">
    <timestep time="0.00">
        <vehicle id="E2W_693.0" eclass="HBEFA3/Bus" CO2="5286.11" CO="20.17" HC="4.85" NOx="60.75" PMx="2.01" fuel="1671.11" electricity="0.00" noise="67.11" route="693_2" type="BUS_A" waiting="0.00" lane="E3_2" pos="12.10" speed="0.00" angle="270.00" x="289.63" y="383.75"/>
        <vehicle id="N2S_92.0" eclass="HBEFA3/Bus" CO2="5286.11" CO="20.17" HC="4.85" NOx="60.75" PMx="2.01" fuel="1671.11" electricity="0.00" noise="67.11" route="92_1" type="BUS_B" waiting="0.00" lane="E10_2" pos="12.10" speed="0.00" angle="180.05" x="-20.81" y="663.75"/>
        <vehicle id="chegongzhuangxilu_east_T2.0" eclass="HBEFA3/PC_G_EU4" CO2="2624.72" CO="164.78" HC="0.81" NOx="1.20" PMx="0.07" fuel="837.22" electricity="0.00" noise="55.94" route="!chegongzhuangxilu_east_T2.0" type="vt_car" waiting="0.00" lane="E3_4" pos="5.10" speed="0.00" angle="270.00" x="296.63" y="374.25"/>
        <vehicle id="chegongzhuangxilu_west_T2.0" eclass="HBEFA3/PC_G_EU4" CO2="2624.72" CO="164.78" HC="0.81" NOx="1.20" PMx="0.07" fuel="837.22" electricity="0.00" noise="55.94" route="!chegongzhuangxilu_west_T2.0" type="vt_car" waiting="0.00" lane="E8_3" pos="5.10" speed="0.00" angle="90.00" x="-297.30" y="355.60"/>
        <vehicle id="fuchenglu_east_T2.0" eclass="HBEFA3/PC_G_EU4" CO2="2624.72" CO="164.78" HC="0.81" NOx="1.20" PMx="0.07" fuel="837.22" electricity="0.00" noise="55.94" route="!fuchenglu_east_T2.0" type="vt_car" waiting="0.00" lane="E33_3" pos="5.10" speed="0.00" angle="274.18" x="301.27" y="-638.47"/>
        <vehicle id="fuchenglu_west_T2.0" eclass="HBEFA3/PC_G_EU4" CO2="2624.72" CO="164.78" HC="0.81" NOx="1.20" PMx="0.07" fuel="837.22" electricity="0.00" noise="55.94" route="!fuchenglu_west_T2.0" type="vt_car" waiting="0.00" lane="E37_2" pos="5.10" speed="0.00" angle="94.20" x="-301.10" y="-626.57"/>
        <vehicle id="shoutinanlu_north_T2.0" eclass="HBEFA3/PC_G_EU4" CO2="2624.72" CO="164.78" HC="0.81" NOx="1.20" PMx="0.07" fuel="837.22" electricity="0.00" noise="55.94" route="!shoutinanlu_north_T2.0" type="vt_car" waiting="0.00" lane="E10_5" pos="5.10" speed="0.00" angle="180.05" x="-9.30" y="670.74"/>
        <vehicle id="zengguanglu_east_T2.0" eclass="HBEFA3/PC_G_EU4" CO2="2624.72" CO="164.78" HC="0.81" NOx="1.20" PMx="0.07" fuel="837.22" electricity="0.00" noise="55.94" route="!zengguanglu_east_T2.0" type="vt_car" waiting="0.00" lane="E19_2" pos="5.10" speed="0.00" angle="269.94" x="297.68" y="-106.02"/>
        <vehicle id="zengguanglu_west_T2.0" eclass="HBEFA3/PC_G_EU4" CO2="2624.72" CO="164.78" HC="0.81" NOx="1.20" PMx="0.07" fuel="837.22" electricity="0.00" noise="55.94" route="!zengguanglu_west_T2.0" type="vt_car" waiting="0.00" lane="E23_2" pos="5.10" speed="0.00" angle="90.00" x="-296.74" y="-110.13"/>
    </timestep>
    <timestep time="300.00">
        <vehicle id="N2S_61.0" eclass="HBEFA3/Bus" CO2="5286.11" CO="20.17" HC="4.85" NOx="60.75" PMx="2.01" fuel="1671.11" electricity="0.00" noise="67.11" route="61_1" type="BUS_B" waiting="74.00" lane="E29_3" pos="374.41" speed="0.00" angle="180.00" x="-14.01" y="-497.83"/>
        <vehicle id="S2N_61.0" eclass="HBEFA3/Bus" CO2="5286.11" CO="20.17" HC="4.85" NOx="60.75" PMx="2.01" fuel="1671.11" electricity="0.00" noise="67.11" route="61_2" type="BUS_A" waiting="69.00" lane="E14_7" pos="38.18" speed="0.00" angle="359.88" x="1.55" y="332.52"/>
        <vehicle id="S2N_92.0" eclass="HBEFA3/Bus" CO2="5286.11" CO="20.17" HC="4.85" NOx="60.75" PMx="2.01" fuel="1671.11" electricity="0.00" noise="67.11" route="92_2" type="BUS_A" waiting="270.00" lane="E37_2" pos="183.25" speed="0.00" angle="94.20" x="-123.44" y="-639.61"/>
        <vehicle id="W2E_73.0" eclass="HBEFA3/Bus" CO2="5286.11" CO="20.17" HC="4.85" NOx="60.75" PMx="2.01" fuel="1671.11" electricity="0.00" noise="67.11" route="73_1" type="BUS_B" waiting="272.00" lane="E37_2" pos="115.00" speed="0.00" angle="94.20" x="-191.50" y="-634.62"/>
        <vehicle id="chegongzhuangxilu_east_T2.12" eclass="HBEFA3/PC_G_EU4" CO2="4646.01" CO="102.27" HC="0.57" NOx="1.97" PMx="0.09" fuel="1481.88" electricity="0.00" noise="65.09" route="!chegongzhuangxilu_east_T2.12" type="vt_car" waiting="0.00" lane="E35_4" pos="12.33" speed="7.07" angle="274.21" x="-42.74" y="-617.02"/>
        <vehicle id="chegongzhuangxilu_east_T2.13" eclass="HBEFA3/PC_G_EU4" CO2="0.00" CO="0.00" HC="0.00" NOx="0.00" PMx="0.00" fuel="0.00" electricity="0.00" noise="62.52" route="!chegongzhuangxilu_east_T2.13" type="vt_car" waiting="0.00" lane="E35_4" pos="54.38" speed="12.11" angle="274.21" x="-84.75" y="-613.93"/>
        <vehicle id="chegongzhuangxilu_east_T2.16" eclass="HBEFA3/PC_G_EU4" CO2="2624.72" CO="164.78" HC="0.81" NOx="1.20" PMx="0.07" fuel="837.22" electricity="0.00" noise="55.94" route="!chegongzhuangxilu_east_T2.16" type="vt_car" waiting="95.00" lane="E5_4" pos="66.80" speed="0.00" angle="269.48" x="32.96" y="373.90"/>
        <vehicle id="chegongzhuangxilu_east_T2.18" eclass="HBEFA3/PC_G_EU4" CO2="2624.72" CO="164.78" HC="0.81" NOx="1.20" PMx="0.07" fuel="837.22" electricity="0.00" noise="55.94" route="!chegongzhuangxilu_east_T2.18" type="vt_car" waiting="23.00" lane="E17_4" pos="56.84" speed="0.00" angle="180.12" x="-11.35" y="-91.71"/>
        <vehicle id="chegongzhuangxilu_east_T2.19" eclass="HBEFA3/PC_G_EU4" CO2="2624.72" CO="164.78" HC="0.81" NOx="1.20" PMx="0.07" fuel="837.22" electricity="0.00" noise="55.94" route="!chegongzhuangxilu_east_T2.19" type="vt_car" waiting="65.00" lane="E5_5" pos="66.80" speed="0.00" angle="269.48" x="32.95" y="370.90"/>
        <vehicle id="chegongzhuangxilu_east_T2.20" eclass="HBEFA3/PC_G_EU4" CO2="2624.72" CO="164.78" HC="0.81" NOx="1.20" PMx="0.07" fuel="837.22" electricity="0.00" noise="55.94" route="!chegongzhuangxilu_east_T2.20" type="vt_car" waiting="52.00" lane="E5_7" pos="66.80" speed="0.00" angle="269.48" x="32.92" y="364.90"/>
        <vehicle id="chegongzhuangxilu_east_T2.22" eclass="HBEFA3/PC_G_EU4" CO2="2624.72" CO="164.78" HC="0.81" NOx="1.20" PMx="0.07" fuel="837.22" electricity="0.00" noise="55.94" route="!chegongzhuangxilu_east_T2.22" type="vt_car" waiting="29.00" lane="E5_6" pos="66.80" speed="0.00" angle="269.48" x="32.93" y="367.90"/>
        <vehicle id="chegongzhuangxilu_east_T2.23" eclass="HBEFA3/PC_G_EU4" CO2="2624.72" CO="164.78" HC="0.81" NOx="1.20" PMx="0.07" fuel="837.22" electricity="0.00" noise="55.94" route="!chegongzhuangxilu_east_T2.23" type="vt_car" waiting="21.00" lane="E5_7" pos="59.30" speed="0.00" angle="269.48" x="40.44" y="364.97"/>
        <vehicle id="chegongzhuangxilu_east_T2.24" eclass="HBEFA3/PC_G_EU4" CO2="2624.72" CO="164.78" HC="0.81" NOx="1.20" PMx="0.07" fuel="837.22" electricity="0.00" noise="55.94" route="!chegongzhuangxilu_east_T2.24" type="vt_car" waiting="11.00" lane="E5_7" pos="51.80" speed="0.00" angle="269.48" x="47.96" y="365.04"/>
        <vehicle id="chegongzhuangxilu_east_T2.25" eclass="HBEFA3/PC_G_EU4" CO2="2530.65" CO="11.32" HC="0.11" NOx="0.84" PMx="0.02" fuel="807.17" electricity="0.00" noise="63.47" route="!chegongzhuangxilu_east_T2.25" type="vt_car" waiting="0.00" lane="E5_2" pos="48.05" speed="11.95" angle="269.48" x="51.73" y="383.08"/>
        <vehicle id="chegongzhuangxilu_east_T2.26" eclass="HBEFA3/PC_G_EU4" CO2="4318.19" CO="35.42" HC="0.26" NOx="1.64" PMx="0.06" fuel="1377.30" electricity="0.00" noise="65.95" route="!chegongzhuangxilu_east_T2.26" type="vt_car" waiting="0.00" lane="E3_4" pos="129.46" speed="13.78" angle="270.00" x="172.27" y="374.25"/>
        <vehicle id="chegongzhuangxilu_east_T2.27" eclass="HBEFA3/PC_G_EU4" CO2="2624.72" CO="164.78" HC="0.81" NOx="1.20" PMx="0.07" fuel="837.22" electricity="0.00" noise="55.94" route="!chegongzhuangxilu_east_T2.27" type="vt_car" waiting="0.00" lane="E3_5" pos="5.10" speed="0.00" angle="270.00" x="296.63" y="370.25"/>
        <vehicle id="chegongzhuangxilu_east_T2.4" eclass="HBEFA3/PC_G_EU4" CO2="6704.07" CO="116.87" HC="0.69" NOx="2.87" PMx="0.13" fuel="2138.28" electricity="0.00" noise="68.22" route="!chegongzhuangxilu_east_T2.4" type="vt_car" waiting="0.00" lane=":J25_19_1" pos="29.20" speed="9.67" angle="153.99" x="2.30" y="-619.07"/>
        <vehicle id="chegongzhuangxilu_east_T2.8" eclass="HBEFA3/PC_G_EU4" CO2="6415.57" CO="71.85" HC="0.48" NOx="2.60" PMx="0.12" fuel="2046.26" electricity="0.00" noise="68.09" route="!chegongzhuangxilu_east_T2.8" type="vt_car" waiting="0.00" lane="E35_4" pos="172.60" speed="14.97" angle="274.21" x="-202.86" y="-605.23"/>
        <vehicle id="chegongzhuangxilu_west_T2.10" eclass="HBEFA3/PC_G_EU4" CO2="2624.72" CO="164.78" HC="0.81" NOx="1.20" PMx="0.07" fuel="837.22" electricity="0.00" noise="55.94" route="!chegongzhuangxilu_west_T2.10" type="vt_car" waiting="24.00" lane="E9_4" pos="26.92" speed="0.00" angle="90.15" x="-40.03" y="359.03"/>
        <vehicle id="chegongzhuangxilu_west_T2.11" eclass="HBEFA3/PC_G_EU4" CO2="2615.53" CO="163.78" HC="0.81" NOx="1.20" PMx="0.07" fuel="834.29" electricity="0.00" noise="54.75" route="!chegongzhuangxilu_west_T2.11" type="vt_car" waiting="1.00" lane="E9_3" pos="19.41" speed="0.05" angle="90.15" x="-47.51" y="355.55"/>
        <vehicle id="chegongzhuangxilu_west_T2.12" eclass="HBEFA3/PC_G_EU4" CO2="5160.43" CO="140.72" HC="0.76" NOx="2.27" PMx="0.11" fuel="1645.95" electricity="0.00" noise="68.21" route="!chegongzhuangxilu_west_T2.12" type="vt_car" waiting="0.00" lane="E8_3" pos="12.51" speed="4.88" angle="90.00" x="-289.89" y="355.60"/>
        <vehicle id="chegongzhuangxilu_west_T2.7" eclass="HBEFA3/PC_G_EU4" CO2="2624.72" CO="164.78" HC="0.81" NOx="1.20" PMx="0.07" fuel="837.22" electricity="0.00" noise="55.94" route="!chegongzhuangxilu_west_T2.7" type="vt_car" waiting="98.00" lane="E9_3" pos="34.42" speed="0.00" angle="90.15" x="-32.53" y="355.51"/>
        <vehicle id="chegongzhuangxilu_west_T2.8" eclass="HBEFA3/PC_G_EU4" CO2="2624.72" CO="164.78" HC="0.81" NOx="1.20" PMx="0.07" fuel="837.22" electricity="0.00" noise="55.94" route="!chegongzhuangxilu_west_T2.8" type="vt_car" waiting="76.00" lane="E9_4" pos="34.42" speed="0.00" angle="90.15" x="-32.54" y="359.01"/>
        <vehicle id="chegongzhuangxilu_west_T2.9" eclass="HBEFA3/PC_G_EU4" CO2="2624.72" CO="164.78" HC="0.81" NOx="1.20" PMx="0.07" fuel="837.22" electricity="0.00" noise="55.94" route="!chegongzhuangxilu_west_T2.9" type="vt_car" waiting="51.00" lane="E9_3" pos="26.92" speed="0.00" angle="90.15" x="-40.02" y="355.53"/>
        <vehicle id="fuchenglu_east_T2.17" eclass="HBEFA3/PC_G_EU4" CO2="5375.11" CO="65.34" HC="0.42" NOx="2.17" PMx="0.09" fuel="1714.40" electricity="0.00" noise="66.49" route="!fuchenglu_east_T2.17" type="vt_car" waiting="0.00" lane="E35_3" pos="256.77" speed="12.56" angle="274.21" x="-286.68" y="-595.05"/>
        <vehicle id="fuchenglu_east_T2.18" eclass="HBEFA3/PC_G_EU4" CO2="2624.72" CO="164.78" HC="0.81" NOx="1.20" PMx="0.07" fuel="837.22" electricity="0.00" noise="55.94" route="!fuchenglu_east_T2.18" type="vt_car" waiting="10.00" lane="E34_4" pos="81.46" speed="0.00" angle="274.23" x="31.74" y="-621.15"/>
        <vehicle id="fuchenglu_east_T2.19" eclass="HBEFA3/PC_G_EU4" CO2="0.00" CO="0.00" HC="0.00" NOx="0.00" PMx="0.00" fuel="0.00" electricity="0.00" noise="59.70" route="!fuchenglu_east_T2.19" type="vt_car" waiting="0.00" lane="E34_5" pos="71.93" speed="11.16" angle="274.23" x="41.15" y="-624.86"/>
        <vehicle id="fuchenglu_east_T2.20" eclass="HBEFA3/PC_G_EU4" CO2="4166.01" CO="30.61" HC="0.24" NOx="1.56" PMx="0.06" fuel="1328.76" electricity="0.00" noise="65.95" route="!fuchenglu_east_T2.20" type="vt_car" waiting="0.00" lane="E33_3" pos="76.93" speed="14.06" angle="274.18" x="229.63" y="-633.23"/>
        <vehicle id="fuchenglu_east_T2.9" eclass="HBEFA3/PC_G_EU4" CO2="2624.69" CO="164.77" HC="0.81" NOx="1.20" PMx="0.07" fuel="837.21" electricity="0.00" noise="55.87" route="!fuchenglu_east_T2.9" type="vt_car" waiting="3.00" lane="E29_3" pos="359.91" speed="0.00" angle="180.00" x="-14.01" y="-483.33"/>
        <vehicle id="fuchenglu_west_T2.1" eclass="HBEFA3/PC_G_EU4" CO2="2624.72" CO="164.78" HC="0.81" NOx="1.20" PMx="0.07" fuel="837.22" electricity="0.00" noise="55.94" route="!fuchenglu_west_T2.1" type="vt_car" waiting="269.00" lane="E37_2" pos="100.50" speed="0.00" angle="94.20" x="-205.97" y="-633.55"/>
        <vehicle id="fuchenglu_west_T2.10" eclass="HBEFA3/PC_G_EU4" CO2="2624.72" CO="164.78" HC="0.81" NOx="1.20" PMx="0.07" fuel="837.22" electricity="0.00" noise="55.94" route="!fuchenglu_west_T2.10" type="vt_car" waiting="114.00" lane="E37_2" pos="78.00" speed="0.00" angle="94.20" x="-228.41" y="-631.91"/>
        <vehicle id="fuchenglu_west_T2.15" eclass="HBEFA3/PC_G_EU4" CO2="2624.72" CO="164.78" HC="0.81" NOx="1.20" PMx="0.07" fuel="837.22" electricity="0.00" noise="55.94" route="!fuchenglu_west_T2.15" type="vt_car" waiting="13.00" lane="E38_4" pos="88.87" speed="0.00" angle="94.39" x="-31.32" y="-635.65"/>
        <vehicle id="fuchenglu_west_T2.16" eclass="HBEFA3/PC_G_EU4" CO2="0.00" CO="0.00" HC="0.00" NOx="0.00" PMx="0.00" fuel="0.00" electricity="0.00" noise="59.36" route="!fuchenglu_west_T2.16" type="vt_car" waiting="0.00" lane="E38_7" pos="11.45" speed="9.72" angle="94.40" x="-107.65" y="-620.76"/>
        <vehicle id="fuchenglu_west_T2.17" eclass="HBEFA3/PC_G_EU4" CO2="5970.41" CO="122.87" HC="0.70" NOx="2.58" PMx="0.12" fuel="1904.29" electricity="0.00" noise="67.74" route="!fuchenglu_west_T2.17" type="vt_car" waiting="0.00" lane="E37_6" pos="24.73" speed="7.65" angle="94.20" x="-280.10" y="-608.56"/>
        <vehicle id="fuchenglu_west_T2.2" eclass="HBEFA3/PC_G_EU4" CO2="2624.72" CO="164.78" HC="0.81" NOx="1.20" PMx="0.07" fuel="837.22" electricity="0.00" noise="55.94" route="!fuchenglu_west_T2.2" type="vt_car" waiting="252.00" lane="E37_2" pos="93.00" speed="0.00" angle="94.20" x="-213.45" y="-633.01"/>
        <vehicle id="fuchenglu_west_T2.8" eclass="HBEFA3/PC_G_EU4" CO2="3189.08" CO="34.40" HC="0.23" NOx="1.18" PMx="0.04" fuel="1017.18" electricity="0.00" noise="63.46" route="!fuchenglu_west_T2.8" type="vt_car" waiting="0.00" lane="E27_4" pos="279.73" speed="10.78" angle="359.86" x="9.77" y="-312.74"/>
        <vehicle id="fuchenglu_west_T2.9" eclass="HBEFA3/PC_G_EU4" CO2="2624.72" CO="164.78" HC="0.81" NOx="1.20" PMx="0.07" fuel="837.22" electricity="0.00" noise="55.94" route="!fuchenglu_west_T2.9" type="vt_car" waiting="131.00" lane="E37_2" pos="85.50" speed="0.00" angle="94.20" x="-220.93" y="-632.46"/>
        <vehicle id="shoutinanlu_north_T2.10" eclass="HBEFA3/PC_G_EU4" CO2="2624.72" CO="164.78" HC="0.81" NOx="1.20" PMx="0.07" fuel="837.22" electricity="0.00" noise="55.94" route="!shoutinanlu_north_T2.10" type="vt_car" waiting="21.00" lane="E17_4" pos="49.34" speed="0.00" angle="180.12" x="-11.33" y="-84.21"/>
        <vehicle id="shoutinanlu_north_T2.12" eclass="HBEFA3/PC_G_EU4" CO2="2624.72" CO="164.78" HC="0.81" NOx="1.20" PMx="0.07" fuel="837.22" electricity="0.00" noise="55.94" route="!shoutinanlu_north_T2.12" type="vt_car" waiting="153.00" lane="E13_3" pos="57.27" speed="0.00" angle="180.12" x="-18.09" y="397.38"/>
        <vehicle id="shoutinanlu_north_T2.15" eclass="HBEFA3/PC_G_EU4" CO2="2624.72" CO="164.78" HC="0.81" NOx="1.20" PMx="0.07" fuel="837.22" electricity="0.00" noise="55.94" route="!shoutinanlu_north_T2.15" type="vt_car" waiting="13.00" lane="E17_4" pos="41.84" speed="0.00" angle="180.12" x="-11.32" y="-76.71"/>
        <vehicle id="shoutinanlu_north_T2.16" eclass="HBEFA3/PC_G_EU4" CO2="2624.72" CO="164.78" HC="0.81" NOx="1.20" PMx="0.07" fuel="837.22" electricity="0.00" noise="55.94" route="!shoutinanlu_north_T2.16" type="vt_car" waiting="21.00" lane="E17_5" pos="56.84" speed="0.00" angle="180.12" x="-8.35" y="-91.72"/>
        <vehicle id="shoutinanlu_north_T2.17" eclass="HBEFA3/PC_G_EU4" CO2="2624.72" CO="164.78" HC="0.81" NOx="1.20" PMx="0.07" fuel="837.22" electricity="0.00" noise="55.94" route="!shoutinanlu_north_T2.17" type="vt_car" waiting="18.00" lane="E17_5" pos="49.34" speed="0.00" angle="180.12" x="-8.33" y="-84.22"/>
        <vehicle id="shoutinanlu_north_T2.18" eclass="HBEFA3/PC_G_EU4" CO2="5116.37" CO="60.16" HC="0.39" NOx="2.05" PMx="0.09" fuel="1631.88" electricity="0.00" noise="66.22" route="!shoutinanlu_north_T2.18" type="vt_car" waiting="0.00" lane=":J23_0_1" pos="8.67" speed="12.54" angle="265.63" x="-84.69" y="-105.66"/>
        <vehicle id="shoutinanlu_north_T2.19" eclass="HBEFA3/PC_G_EU4" CO2="2624.72" CO="164.78" HC="0.81" NOx="1.20" PMx="0.07" fuel="837.22" electricity="0.00" noise="55.94" route="!shoutinanlu_north_T2.19" type="vt_car" waiting="16.00" lane="E17_6" pos="56.84" speed="0.00" angle="180.12" x="-5.35" y="-91.73"/>
        <vehicle id="shoutinanlu_north_T2.2" eclass="HBEFA3/PC_G_EU4" CO2="7395.31" CO="129.57" HC="0.77" NOx="3.19" PMx="0.15" fuel="2358.75" electricity="0.00" noise="69.29" route="!shoutinanlu_north_T2.2" type="vt_car" waiting="0.00" lane=":J25_19_0" pos="27.20" speed="9.84" angle="154.19" x="-2.20" y="-617.21"/>
        <vehicle id="shoutinanlu_north_T2.20" eclass="HBEFA3/PC_G_EU4" CO2="2624.72" CO="164.78" HC="0.81" NOx="1.20" PMx="0.07" fuel="837.22" electricity="0.00" noise="55.94" route="!shoutinanlu_north_T2.20" type="vt_car" waiting="5.00" lane="E17_4" pos="34.34" speed="0.00" angle="180.12" x="-11.30" y="-69.21"/>
        <vehicle id="shoutinanlu_north_T2.21" eclass="HBEFA3/PC_G_EU4" CO2="2624.72" CO="164.78" HC="0.81" NOx="1.20" PMx="0.07" fuel="837.22" electricity="0.00" noise="55.94" route="!shoutinanlu_north_T2.21" type="vt_car" waiting="9.00" lane="E17_6" pos="49.34" speed="0.00" angle="180.12" x="-5.33" y="-84.23"/>
        <vehicle id="shoutinanlu_north_T2.23" eclass="HBEFA3/PC_G_EU4" CO2="2624.72" CO="164.78" HC="0.81" NOx="1.20" PMx="0.07" fuel="837.22" electricity="0.00" noise="55.94" route="!shoutinanlu_north_T2.23" type="vt_car" waiting="6.00" lane="E17_5" pos="41.84" speed="0.00" angle="180.12" x="-8.32" y="-76.72"/>
        <vehicle id="shoutinanlu_north_T2.24" eclass="HBEFA3/PC_G_EU4" CO2="5498.49" CO="68.25" HC="0.44" NOx="2.23" PMx="0.10" fuel="1753.76" electricity="0.00" noise="66.61" route="!shoutinanlu_north_T2.24" type="vt_car" waiting="0.00" lane="E16_4" pos="343.50" speed="12.50" angle="179.97" x="-10.12" y="-10.11"/>
        <vehicle id="shoutinanlu_north_T2.25" eclass="HBEFA3/PC_G_EU4" CO2="3908.07" CO="37.55" HC="0.26" NOx="1.49" PMx="0.05" fuel="1246.50" electricity="0.00" noise="64.89" route="!shoutinanlu_north_T2.25" type="vt_car" waiting="0.00" lane="E16_4" pos="225.79" speed="12.23" angle="179.97" x="-10.18" y="107.61"/>
        <vehicle id="shoutinanlu_north_T2.26" eclass="HBEFA3/PC_G_EU4" CO2="5469.36" CO="67.01" HC="0.43" NOx="2.21" PMx="0.10" fuel="1744.47" electricity="0.00" noise="66.60" route="!shoutinanlu_north_T2.26" type="vt_car" waiting="0.00" lane="E16_4" pos="109.63" speed="12.59" angle="179.97" x="-10.24" y="223.77"/>
        <vehicle id="shoutinanlu_north_T2.27" eclass="HBEFA3/PC_G_EU4" CO2="0.00" CO="0.00" HC="0.00" NOx="0.00" PMx="0.00" fuel="0.00" electricity="0.00" noise="63.90" route="!shoutinanlu_north_T2.27" type="vt_car" waiting="0.00" lane="E16_4" pos="38.75" speed="14.43" angle="179.97" x="-10.27" y="294.66"/>
        <vehicle id="shoutinanlu_north_T2.28" eclass="HBEFA3/PC_G_EU4" CO2="0.00" CO="0.00" HC="0.00" NOx="0.00" PMx="0.00" fuel="0.00" electricity="0.00" noise="63.30" route="!shoutinanlu_north_T2.28" type="vt_car" waiting="0.00" lane="E13_2" pos="7.15" speed="13.64" angle="180.09" x="-21.00" y="454.90"/>
        <vehicle id="shoutinanlu_north_T2.29" eclass="HBEFA3/PC_G_EU4" CO2="3469.74" CO="29.76" HC="0.21" NOx="1.28" PMx="0.04" fuel="1106.69" electricity="0.00" noise="64.40" route="!shoutinanlu_north_T2.29" type="vt_car" waiting="0.00" lane="E10_2" pos="82.80" speed="12.06" angle="180.05" x="-20.88" y="593.05"/>
        <vehicle id="shoutinanlu_north_T2.5" eclass="HBEFA3/PC_G_EU4" CO2="2178.44" CO="14.98" HC="0.12" NOx="0.71" PMx="0.01" fuel="694.84" electricity="0.00" noise="62.27" route="!shoutinanlu_north_T2.5" type="vt_car" waiting="0.00" lane="E25_2" pos="91.31" speed="10.62" angle="270.03" x="-177.16" y="-105.70"/>
        <vehicle id="zengguanglu_east_T2.10" eclass="HBEFA3/PC_G_EU4" CO2="2624.72" CO="164.78" HC="0.81" NOx="1.20" PMx="0.07" fuel="837.22" electricity="0.00" noise="55.94" route="!zengguanglu_east_T2.10" type="vt_car" waiting="0.00" lane="E19_2" pos="5.10" speed="0.00" angle="269.94" x="297.68" y="-106.02"/>
        <vehicle id="zengguanglu_east_T2.5" eclass="HBEFA3/PC_G_EU4" CO2="2246.03" CO="3.87" HC="0.07" NOx="0.70" PMx="0.01" fuel="716.39" electricity="0.00" noise="63.37" route="!zengguanglu_east_T2.5" type="vt_car" waiting="0.00" lane="E25_2" pos="42.64" speed="12.15" angle="270.03" x="-128.51" y="-105.73"/>
        <vehicle id="zengguanglu_east_T2.6" eclass="HBEFA3/PC_G_EU4" CO2="2624.72" CO="164.78" HC="0.81" NOx="1.20" PMx="0.07" fuel="837.22" electricity="0.00" noise="55.94" route="!zengguanglu_east_T2.6" type="vt_car" waiting="58.00" lane="E14_7" pos="23.68" speed="0.00" angle="359.88" x="1.58" y="317.99"/>
        <vehicle id="zengguanglu_east_T2.7" eclass="HBEFA3/PC_G_EU4" CO2="2624.72" CO="164.78" HC="0.81" NOx="1.20" PMx="0.07" fuel="837.22" electricity="0.00" noise="55.94" route="!zengguanglu_east_T2.7" type="vt_car" waiting="66.00" lane="E18_2" pos="75.30" speed="0.00" angle="269.96" x="32.40" y="-105.01"/>
        <vehicle id="zengguanglu_east_T2.8" eclass="HBEFA3/PC_G_EU4" CO2="0.00" CO="0.00" HC="0.00" NOx="0.00" PMx="0.00" fuel="0.00" electricity="0.00" noise="60.10" route="!zengguanglu_east_T2.8" type="vt_car" waiting="0.00" lane="E25_2" pos="68.71" speed="11.13" angle="270.03" x="-154.57" y="-105.71"/>
        <vehicle id="zengguanglu_east_T2.9" eclass="HBEFA3/PC_G_EU4" CO2="8284.72" CO="129.53" HC="0.79" NOx="3.56" PMx="0.17" fuel="2642.42" electricity="0.00" noise="69.89" route="!zengguanglu_east_T2.9" type="vt_car" waiting="0.00" lane="E24_2" pos="28.62" speed="11.98" angle="270.03" x="-61.49" y="-105.00"/>
        <vehicle id="zengguanglu_west_T2.3" eclass="HBEFA3/PC_G_EU4" CO2="3223.38" CO="14.24" HC="0.14" NOx="1.13" PMx="0.04" fuel="1028.11" electricity="0.00" noise="64.98" route="!zengguanglu_west_T2.3" type="vt_car" waiting="0.00" lane="E21_2" pos="19.84" speed="13.56" angle="89.87" x="139.49" y="-109.89"/>
        <vehicle id="zengguanglu_west_T2.4" eclass="HBEFA3/PC_G_EU4" CO2="5353.69" CO="61.92" HC="0.41" NOx="2.15" PMx="0.09" fuel="1707.57" electricity="0.00" noise="66.59" route="!zengguanglu_west_T2.4" type="vt_car" waiting="0.00" lane="E30_4" pos="38.36" speed="12.98" angle="179.53" x="-11.06" y="-539.17"/>
        <vehicle id="zengguanglu_west_T2.5" eclass="HBEFA3/PC_G_EU4" CO2="3225.66" CO="19.08" HC="0.16" NOx="1.15" PMx="0.04" fuel="1028.84" electricity="0.00" noise="64.59" route="!zengguanglu_west_T2.5" type="vt_car" waiting="0.00" lane=":J20_0_1" pos="0.62" speed="12.84" angle="89.37" x="108.76" y="-110.70"/>
    </timestep>
    <timestep time="600.00">
        <vehicle id="E2W_693.1" eclass="HBEFA3/Bus" CO2="5286.11" CO="20.17" HC="4.85" NOx="60.75" PMx="2.01" fuel="1671.11" electricity="0.00" noise="67.11" route="693_2" type="BUS_A" waiting="0.00" lane="E3_2" pos="12.10" speed="0.00" angle="270.00" x="289.63" y="383.75"/>
        <vehicle id="N2S_61.1" eclass="HBEFA3/Bus" CO2="5286.11" CO="20.17" HC="4.85" NOx="60.75" PMx="2.01" fuel="1671.11" electricity="0.00" noise="67.11" route="61_1" type="BUS_B" waiting="0.00" lane="E8_3" pos="12.10" speed="0.00" angle="90.00" x="-290.30" y="355.60"/>
        <vehicle id="N2S_92.1" eclass="HBEFA3/Bus" CO2="5286.11" CO="20.17" HC="4.85" NOx="60.75" PMx="2.01" fuel="1671.11" electricity="0.00" noise="67.11" route="92_1" type="BUS_B" waiting="0.00" lane="E10_2" pos="12.10" speed="0.00" angle="180.05" x="-20.81" y="663.75"/>
        <vehicle id="S2N_61.1" eclass="HBEFA3/Bus" CO2="5286.11" CO="20.17" HC="4.85" NOx="60.75" PMx="2.01" fuel="1671.11" electricity="0.00" noise="67.11" route="61_2" type="BUS_A" waiting="0.00" lane="E33_3" pos="12.10" speed="0.00" angle="274.18" x="294.29" y="-637.96"/>
        <vehicle id="S2N_92.0" eclass="HBEFA3/Bus" CO2="5286.11" CO="20.17" HC="4.85" NOx="60.75" PMx="2.01" fuel="1671.11" electricity="0.00" noise="67.11" route="92_2" type="BUS_A" waiting="22.00" lane="E14_4" pos="30.68" speed="0.00" angle="0.04" x="10.69" y="324.92"/>
        <vehicle id="S2N_92.1" eclass="HBEFA3/Bus" CO2="5286.11" CO="20.17" HC="4.85" NOx="60.75" PMx="2.01" fuel="1671.11" electricity="0.00" noise="67.11" route="92_2" type="BUS_A" waiting="0.00" lane="E37_2" pos="12.10" speed="0.00" angle="94.20" x="-294.12" y="-627.09"/>
        <vehicle id="W2E_73.0" eclass="HBEFA3/Bus" CO2="5286.11" CO="20.17" HC="4.85" NOx="60.75" PMx="2.01" fuel="1671.11" electricity="0.00" noise="67.11" route="73_1" type="BUS_B" waiting="253.00" lane="E38_2" pos="89.87" speed="0.00" angle="94.46" x="-30.27" y="-646.78"/>
        <vehicle id="chegongzhuangxilu_east_T2.20" eclass="HBEFA3/PC_G_EU4" CO2="2624.64" CO="164.76" HC="0.81" NOx="1.20" PMx="0.07" fuel="837.19" electricity="0.00" noise="55.94" route="!chegongzhuangxilu_east_T2.20" type="vt_car" waiting="4.00" lane="E30_6" pos="88.78" speed="0.00" angle="179.54" x="-4.65" y="-590.08"/>
        <vehicle id="chegongzhuangxilu_east_T2.23" eclass="HBEFA3/PC_G_EU4" CO2="6449.09" CO="116.34" HC="0.68" NOx="2.76" PMx="0.13" fuel="2056.96" electricity="0.00" noise="67.95" route="!chegongzhuangxilu_east_T2.23" type="vt_car" waiting="0.00" lane="E36_5" pos="5.70" speed="9.19" angle="94.18" x="36.33" y="-636.14"/>
        <vehicle id="chegongzhuangxilu_east_T2.24" eclass="HBEFA3/PC_G_EU4" CO2="2624.72" CO="164.78" HC="0.81" NOx="1.20" PMx="0.07" fuel="837.22" electricity="0.00" noise="55.94" route="!chegongzhuangxilu_east_T2.24" type="vt_car" waiting="39.00" lane="E30_7" pos="88.77" speed="0.00" angle="179.53" x="-1.64" y="-590.30"/>
        <vehicle id="chegongzhuangxilu_east_T2.28" eclass="HBEFA3/PC_G_EU4" CO2="2624.72" CO="164.78" HC="0.81" NOx="1.20" PMx="0.07" fuel="837.22" electricity="0.00" noise="55.94" route="!chegongzhuangxilu_east_T2.28" type="vt_car" waiting="35.00" lane="E30_7" pos="81.27" speed="0.00" angle="179.53" x="-1.70" y="-582.73"/>