<?xml version="1.0" encoding="UTF-8"?>

<!-- generated on 2024-04-29 21:36:34 by Eclipse SUMO GUI Version 1.19.0
<configuration xmlns:xsi="http://www.w3.org/2001/XMLSchema-instance" xsi:noNamespaceSchemaLocation="http://sumo.dlr.de/xsd/sumoConfiguration.xsd">

    <input>
        <net-file value="C:\Users\10539\Documents\BaiduNetdiskWorkspace\Python项目\Python绘图\本科毕业设计\交叉口模型参数分析\jmCrossingGap\3.4晚高峰（jmCrossingGap=1）\4.net.xml"/>
        <route-files value="C:\Users\10539\Documents\BaiduNetdiskWorkspace\Python项目\Python绘图\本科毕业设计\交叉口模型参数分析\jmCrossingGap\3.4晚高峰（jmCrossingGap=1）\v_vehs.rou.xml,C:\Users\10539\Documents\BaiduNetdiskWorkspace\Python项目\Python绘图\本科毕业设计\交叉口模型参数分析\jmCrossingGap\3.4晚高峰（jmCrossingGap=1）\pedestrian.rou.xml,C:\Users\10539\Documents\BaiduNetdiskWorkspace\Python项目\Python绘图\本科毕业设计\交叉口模型参数分析\jmCrossingGap\3.4晚高峰（jmCrossingGap=1）\bus.rou.xml"/>
        <additional-files value="C:\Users\10539\Documents\BaiduNetdiskWorkspace\Python项目\Python绘图\本科毕业设计\交叉口模型参数分析\jmCrossingGap\3.4晚高峰（jmCrossingGap=1）\det_e3.add.xml,C:\Users\10539\Documents\BaiduNetdiskWorkspace\Python项目\Python绘图\本科毕业设计\交叉口模型参数分析\jmCrossingGap\3.4晚高峰（jmCrossingGap=1）\det_e2.add.xml,C:\Users\10539\Documents\BaiduNetdiskWorkspace\Python项目\Python绘图\本科毕业设计\交叉口模型参数分析\jmCrossingGap\3.4晚高峰（jmCrossingGap=1）\busstop_def.add.xml"/>
    </input>

    <output>
        <write-license value="false"/>
        <output-prefix value="OUTPUT-"/>
        <precision value="2"/>
        <human-readable-time value="false"/>
        <emission-output value="C:\Users\10539\Documents\BaiduNetdiskWorkspace\Python项目\Python绘图\本科毕业设计\交叉口模型参数分析\jmCrossingGap\3.4晚高峰（jmCrossingGap=1）\output/data_emission.xml"/>
        <emission-output.precision value="2"/>
        <queue-output value="C:\Users\10539\Documents\BaiduNetdiskWorkspace\Python项目\Python绘图\本科毕业设计\交叉口模型参数分析\jmCrossingGap\3.4晚高峰（jmCrossingGap=1）\output/data_Queue.xml"/>
        <queue-output.period value="300"/>
        <summary-output value="C:\Users\10539\Documents\BaiduNetdiskWorkspace\Python项目\Python绘图\本科毕业设计\交叉口模型参数分析\jmCrossingGap\3.4晚高峰（jmCrossingGap=1）\output/data_summary.xml"/>
        <summary-output.period value="300"/>
        <person-summary-output value="C:\Users\10539\Documents\BaiduNetdiskWorkspace\Python项目\Python绘图\本科毕业设计\交叉口模型参数分析\jmCrossingGap\3.4晚高峰（jmCrossingGap=1）\output/data_person_summary.xml"/>
        <personinfo-output value="C:\Users\10539\Documents\BaiduNetdiskWorkspace\Python项目\Python绘图\本科毕业设计\交叉口模型参数分析\jmCrossingGap\3.4晚高峰（jmCrossingGap=1）\output/data_personinfo.xml"/>
        <collision-output value="C:\Users\10539\Documents\BaiduNetdiskWorkspace\Python项目\Python绘图\本科毕业设计\交叉口模型参数分析\jmCrossingGap\3.4晚高峰（jmCrossingGap=1）\output/data_collision.xml"/>
        <edgedata-output value="C:\Users\10539\Documents\BaiduNetdiskWorkspace\Python项目\Python绘图\本科毕业设计\交叉口模型参数分析\jmCrossingGap\3.4晚高峰（jmCrossingGap=1）\output/data_edges.xml"/>
        <lanedata-output value="C:\Users\10539\Documents\BaiduNetdiskWorkspace\Python项目\Python绘图\本科毕业设计\交叉口模型参数分析\jmCrossingGap\3.4晚高峰（jmCrossingGap=1）\output/data_lanes.xml"/>
        <statistic-output value="C:\Users\10539\Documents\BaiduNetdiskWorkspace\Python项目\Python绘图\本科毕业设计\交叉口模型参数分析\jmCrossingGap\3.4晚高峰（jmCrossingGap=1）\output/data_statistic.xml"/>
    </output>

    <time>
        <begin value="0"/>
        <end value="3600"/>
        <step-length value="1"/>
    </time>

    <processing>
        <no-internal-links value="false"/>
        <ignore-route-errors value="true"/>
        <collision.action value="teleport"/>
        <intermodal-collision.action value="warn"/>
        <collision.stoptime value="0"/>
        <intermodal-collision.stoptime value="0"/>
        <collision.check-junctions value="false"/>
        <max-num-vehicles value="-1"/>
        <max-num-teleports value="-1"/>
        <time-to-teleport value="300"/>
        <time-to-teleport.remove value="false"/>
        <waiting-time-memory value="100"/>
        <max-depart-delay value="-1"/>
        <random-depart-offset value="0"/>
        <lanechange.duration value="0"/>
        <lanechange.overtake-right value="false"/>
        <tls.all-off value="false"/>
        <tls.yellow.min-decel value="3"/>
    </processing>

    <routing>
        <routing-algorithm value="dijkstra"/>
    </routing>

    <report>
        <verbose value="true"/>
        <no-warnings value="true"/>
        <log value="C:\Users\10539\Documents\BaiduNetdiskWorkspace\Python项目\Python绘图\本科毕业设计\交叉口模型参数分析\jmCrossingGap\3.4晚高峰（jmCrossingGap=1）\output/data_log.xml"/>
        <no-step-log value="true"/>
        <step-log.period value="300"/>
    </report>

    <emissions>
        <device.emissions.period value="300"/>
    </emissions>

    <mesoscopic>
        <mesosim value="false"/>
    </mesoscopic>

    <random_number>
        <random value="false"/>
        <seed value="23423"/>
    </random_number>

    <gui_only>
        <gui-settings-file value="C:\Users\10539\Documents\BaiduNetdiskWorkspace\Python项目\Python绘图\本科毕业设计\交叉口模型参数分析\jmCrossingGap\3.4晚高峰（jmCrossingGap=1）\viewsettings.xml"/>
        <start value="false"/>
        <demo value="false"/>
        <window-size value="800,600"/>
        <window-pos value="100,100"/>
    </gui_only>

</configuration>
-->

<emission-export xmlns:xsi="http://www.w3.org/2001/XMLSchema-instance" xsi:noNamespaceSchemaLocation="http://sumo.dlr.de/xsd/emission_file.xsd">
    <timestep time="0.00">
        <vehicle id="E2W_693.0" eclass="HBEFA3/Bus" CO2="5286.11" CO="20.17" HC="4.85" NOx="60.75" PMx="2.01" fuel="1671.11" electricity="0.00" noise="67.11" route="693_2" type="BUS_A" waiting="0.00" lane="E3_2" pos="12.10" speed="0.00" angle="270.00" x="289.63" y="383.75"/>
        <vehicle id="N2S_92.0" eclass="HBEFA3/Bus" CO2="5286.11" CO="20.17" HC="4.85" NOx="60.75" PMx="2.01" fuel="1671.11" electricity="0.00" noise="67.11" route="92_1" type="BUS_B" waiting="0.00" lane="E10_2" pos="12.10" speed="0.00" angle="180.05" x="-20.81" y="663.75"/>
        <vehicle id="chegongzhuangxilu_east_T2.0" eclass="HBEFA3/PC_G_EU4" CO2="2624.72" CO="164.78" HC="0.81" NOx="1.20" PMx="0.07" fuel="837.22" electricity="0.00" noise="55.94" route="!chegongzhuangxilu_east_T2.0" type="vt_car" waiting="0.00" lane="E3_4" pos="5.10" speed="0.00" angle="270.00" x="296.63" y="374.25"/>
        <vehicle id="chegongzhuangxilu_west_T2.0" eclass="HBEFA3/PC_G_EU4" CO2="2624.72" CO="164.78" HC="0.81" NOx="1.20" PMx="0.07" fuel="837.22" electricity="0.00" noise="55.94" route="!chegongzhuangxilu_west_T2.0" type="vt_car" waiting="0.00" lane="E8_3" pos="5.10" speed="0.00" angle="90.00" x="-297.30" y="355.60"/>
        <vehicle id="fuchenglu_east_T2.0" eclass="HBEFA3/PC_G_EU4" CO2="2624.72" CO="164.78" HC="0.81" NOx="1.20" PMx="0.07" fuel="837.22" electricity="0.00" noise="55.94" route="!fuchenglu_east_T2.0" type="vt_car" waiting="0.00" lane="E33_3" pos="5.10" speed="0.00" angle="274.18" x="301.27" y="-638.47"/>
        <vehicle id="fuchenglu_west_T2.0" eclass="HBEFA3/PC_G_EU4" CO2="2624.72" CO="164.78" HC="0.81" NOx="1.20" PMx="0.07" fuel="837.22" electricity="0.00" noise="55.94" route="!fuchenglu_west_T2.0" type="vt_car" waiting="0.00" lane="E37_2" pos="5.10" speed="0.00" angle="94.20" x="-301.10" y="-626.57"/>
        <vehicle id="shoutinanlu_north_T2.0" eclass="HBEFA3/PC_G_EU4" CO2="2624.72" CO="164.78" HC="0.81" NOx="1.20" PMx="0.07" fuel="837.22" electricity="0.00" noise="55.94" route="!shoutinanlu_north_T2.0" type="vt_car" waiting="0.00" lane="E10_5" pos="5.10" speed="0.00" angle="180.05" x="-9.30" y="670.74"/>
        <vehicle id="zengguanglu_east_T2.0" eclass="HBEFA3/PC_G_EU4" CO2="2624.72" CO="164.78" HC="0.81" NOx="1.20" PMx="0.07" fuel="837.22" electricity="0.00" noise="55.94" route="!zengguanglu_east_T2.0" type="vt_car" waiting="0.00" lane="E19_2" pos="5.10" speed="0.00" angle="269.94" x="297.68" y="-106.02"/>
        <vehicle id="zengguanglu_west_T2.0" eclass="HBEFA3/PC_G_EU4" CO2="2624.72" CO="164.78" HC="0.81" NOx="1.20" PMx="0.07" fuel="837.22" electricity="0.00" noise="55.94" route="!zengguanglu_west_T2.0" type="vt_car" waiting="0.00" lane="E23_2" pos="5.10" speed="0.00" angle="90.00" x="-296.74" y="-110.13"/>
    </timestep>
    <timestep time="300.00">
        <vehicle id="N2S_61.0" eclass="HBEFA3/Bus" CO2="5286.11" CO="20.17" HC="4.85" NOx="60.75" PMx="2.01" fuel="1671.11" electricity="0.00" noise="67.11" route="61_1" type="BUS_B" waiting="74.00" lane="E29_3" pos="374.41" speed="0.00" angle="180.00" x="-14.01" y="-497.83"/>
        <vehicle id="S2N_61.0" eclass="HBEFA3/Bus" CO2="5286.11" CO="20.17" HC="4.85" NOx="60.75" PMx="2.01" fuel="1671.11" electricity="0.00" noise="67.11" route="61_2" type="BUS_A" waiting="70.00" lane="E14_7" pos="23.18" speed="0.00" angle="359.88" x="1.58" y="317.49"/>
        <vehicle id="S2N_92.0" eclass="HBEFA3/Bus" CO2="5286.11" CO="20.17" HC="4.85" NOx="60.75" PMx="2.01" fuel="1671.11" electricity="0.00" noise="67.11" route="92_2" type="BUS_A" waiting="270.00" lane="E37_2" pos="183.25" speed="0.00" angle="94.20" x="-123.44" y="-639.61"/>
        <vehicle id="W2E_73.0" eclass="HBEFA3/Bus" CO2="5286.11" CO="20.17" HC="4.85" NOx="60.75" PMx="2.01" fuel="1671.11" electricity="0.00" noise="67.11" route="73_1" type="BUS_B" waiting="273.00" lane="E37_2" pos="115.00" speed="0.00" angle="94.20" x="-191.50" y="-634.62"/>
        <vehicle id="chegongzhuangxilu_east_T2.16" eclass="HBEFA3/PC_G_EU4" CO2="2624.72" CO="164.78" HC="0.81" NOx="1.20" PMx="0.07" fuel="837.22" electricity="0.00" noise="55.94" route="!chegongzhuangxilu_east_T2.16" type="vt_car" waiting="122.00" lane="E5_4" pos="66.80" speed="0.00" angle="269.48" x="32.96" y="373.90"/>
        <vehicle id="chegongzhuangxilu_east_T2.17" eclass="HBEFA3/PC_G_EU4" CO2="2562.15" CO="2.04" HC="0.07" NOx="0.82" PMx="0.02" fuel="817.22" electricity="0.00" noise="64.37" route="!chegongzhuangxilu_east_T2.17" type="vt_car" waiting="0.00" lane="E35_4" pos="154.54" speed="13.34" angle="274.21" x="-184.82" y="-606.56"/>
        <vehicle id="chegongzhuangxilu_east_T2.18" eclass="HBEFA3/PC_G_EU4" CO2="2624.72" CO="164.78" HC="0.81" NOx="1.20" PMx="0.07" fuel="837.22" electricity="0.00" noise="55.94" route="!chegongzhuangxilu_east_T2.18" type="vt_car" waiting="102.00" lane="E5_5" pos="66.80" speed="0.00" angle="269.48" x="32.95" y="370.90"/>
        <vehicle id="chegongzhuangxilu_east_T2.20" eclass="HBEFA3/PC_G_EU4" CO2="2624.72" CO="164.78" HC="0.81" NOx="1.20" PMx="0.07" fuel="837.22" electricity="0.00" noise="55.94" route="!chegongzhuangxilu_east_T2.20" type="vt_car" waiting="81.00" lane="E5_6" pos="66.80" speed="0.00" angle="269.48" x="32.93" y="367.90"/>
        <vehicle id="chegongzhuangxilu_east_T2.21" eclass="HBEFA3/PC_G_EU4" CO2="2624.72" CO="164.78" HC="0.81" NOx="1.20" PMx="0.07" fuel="837.22" electricity="0.00" noise="55.94" route="!chegongzhuangxilu_east_T2.21" type="vt_car" waiting="76.00" lane="E5_5" pos="59.30" speed="0.00" angle="269.48" x="40.46" y="370.97"/>
        <vehicle id="chegongzhuangxilu_east_T2.22" eclass="HBEFA3/PC_G_EU4" CO2="2624.72" CO="164.78" HC="0.81" NOx="1.20" PMx="0.07" fuel="837.22" electricity="0.00" noise="55.94" route="!chegongzhuangxilu_east_T2.22" type="vt_car" waiting="65.00" lane="E5_7" pos="66.80" speed="0.00" angle="269.48" x="32.92" y="364.90"/>
        <vehicle id="chegongzhuangxilu_east_T2.23" eclass="HBEFA3/PC_G_EU4" CO2="2624.72" CO="164.78" HC="0.81" NOx="1.20" PMx="0.07" fuel="837.22" electricity="0.00" noise="55.94" route="!chegongzhuangxilu_east_T2.23" type="vt_car" waiting="56.00" lane="E5_5" pos="51.80" speed="0.00" angle="269.48" x="47.97" y="371.04"/>
        <vehicle id="chegongzhuangxilu_east_T2.24" eclass="HBEFA3/PC_G_EU4" CO2="2624.72" CO="164.78" HC="0.81" NOx="1.20" PMx="0.07" fuel="837.22" electricity="0.00" noise="55.94" route="!chegongzhuangxilu_east_T2.24" type="vt_car" waiting="46.00" lane="E5_5" pos="44.30" speed="0.00" angle="269.48" x="55.48" y="371.10"/>
        <vehicle id="chegongzhuangxilu_east_T2.26" eclass="HBEFA3/PC_G_EU4" CO2="2624.72" CO="164.78" HC="0.81" NOx="1.20" PMx="0.07" fuel="837.22" electricity="0.00" noise="55.94" route="!chegongzhuangxilu_east_T2.26" type="vt_car" waiting="30.00" lane="E5_5" pos="36.79" speed="0.00" angle="269.48" x="62.99" y="371.17"/>
        <vehicle id="chegongzhuangxilu_east_T2.27" eclass="HBEFA3/PC_G_EU4" CO2="2624.72" CO="164.78" HC="0.81" NOx="1.20" PMx="0.07" fuel="837.22" electricity="0.00" noise="55.94" route="!chegongzhuangxilu_east_T2.27" type="vt_car" waiting="18.00" lane="E5_7" pos="59.30" speed="0.00" angle="269.48" x="40.44" y="364.97"/>
        <vehicle id="chegongzhuangxilu_east_T2.28" eclass="HBEFA3/PC_G_EU4" CO2="2624.72" CO="164.78" HC="0.81" NOx="1.20" PMx="0.07" fuel="837.22" electricity="0.00" noise="55.94" route="!chegongzhuangxilu_east_T2.28" type="vt_car" waiting="9.00" lane="E5_5" pos="29.29" speed="0.00" angle="269.48" x="70.50" y="371.24"/>
        <vehicle id="chegongzhuangxilu_east_T2.29" eclass="HBEFA3/PC_G_EU4" CO2="2617.82" CO="163.97" HC="0.81" NOx="1.20" PMx="0.07" fuel="835.02" electricity="0.00" noise="55.06" route="!chegongzhuangxilu_east_T2.29" type="vt_car" waiting="1.00" lane="E5_5" pos="21.79" speed="0.04" angle="269.48" x="78.01" y="371.31"/>
        <vehicle id="chegongzhuangxilu_east_T2.30" eclass="HBEFA3/PC_G_EU4" CO2="5872.36" CO="61.74" HC="0.42" NOx="2.35" PMx="0.10" fuel="1873.00" electricity="0.00" noise="67.59" route="!chegongzhuangxilu_east_T2.30" type="vt_car" waiting="0.00" lane="E4_6" pos="11.85" speed="14.77" angle="269.78" x="142.14" y="366.18"/>
        <vehicle id="chegongzhuangxilu_east_T2.31" eclass="HBEFA3/PC_G_EU4" CO2="5940.60" CO="115.59" HC="0.67" NOx="2.55" PMx="0.12" fuel="1894.78" electricity="0.00" noise="67.38" route="!chegongzhuangxilu_east_T2.31" type="vt_car" waiting="0.00" lane="E3_4" pos="26.69" speed="8.26" angle="270.00" x="275.04" y="374.25"/>
        <vehicle id="chegongzhuangxilu_west_T2.10" eclass="HBEFA3/PC_G_EU4" CO2="2624.72" CO="164.78" HC="0.81" NOx="1.20" PMx="0.07" fuel="837.22" electricity="0.00" noise="55.94" route="!chegongzhuangxilu_west_T2.10" type="vt_car" waiting="11.00" lane="E17_4" pos="34.34" speed="0.00" angle="180.12" x="-11.30" y="-69.21"/>
        <vehicle id="chegongzhuangxilu_west_T2.11" eclass="HBEFA3/PC_G_EU4" CO2="2624.72" CO="164.78" HC="0.81" NOx="1.20" PMx="0.07" fuel="837.22" electricity="0.00" noise="55.94" route="!chegongzhuangxilu_west_T2.11" type="vt_car" waiting="30.00" lane="E9_4" pos="34.42" speed="0.00" angle="90.15" x="-32.54" y="359.01"/>
        <vehicle id="chegongzhuangxilu_west_T2.12" eclass="HBEFA3/PC_G_EU4" CO2="2624.72" CO="164.78" HC="0.81" NOx="1.20" PMx="0.07" fuel="837.22" electricity="0.00" noise="55.94" route="!chegongzhuangxilu_west_T2.12" type="vt_car" waiting="10.00" lane="E9_3" pos="26.92" speed="0.00" angle="90.15" x="-40.02" y="355.53"/>
        <vehicle id="chegongzhuangxilu_west_T2.13" eclass="HBEFA3/PC_G_EU4" CO2="0.00" CO="0.00" HC="0.00" NOx="0.00" PMx="0.00" fuel="0.00" electricity="0.00" noise="63.95" route="!chegongzhuangxilu_west_T2.13" type="vt_car" waiting="0.00" lane="E8_5" pos="164.57" speed="13.98" angle="90.00" x="-137.83" y="362.60"/>
        <vehicle id="chegongzhuangxilu_west_T2.2" eclass="HBEFA3/PC_G_EU4" CO2="6304.26" CO="134.10" HC="0.76" NOx="2.74" PMx="0.13" fuel="2010.77" electricity="0.00" noise="68.74" route="!chegongzhuangxilu_west_T2.2" type="vt_car" waiting="0.00" lane=":J25_19_0" pos="8.89" speed="7.27" angle="172.91" x="-6.54" y="-599.66"/>
        <vehicle id="chegongzhuangxilu_west_T2.4" eclass="HBEFA3/PC_G_EU4" CO2="7979.84" CO="147.37" HC="0.86" NOx="3.48" PMx="0.17" fuel="2545.18" electricity="0.00" noise="70.60" route="!chegongzhuangxilu_west_T2.4" type="vt_car" waiting="0.00" lane=":J25_19_1" pos="26.79" speed="9.24" angle="153.99" x="1.24" y="-616.90"/>
        <vehicle id="chegongzhuangxilu_west_T2.7" eclass="HBEFA3/PC_G_EU4" CO2="0.00" CO="0.00" HC="0.00" NOx="0.00" PMx="0.00" fuel="0.00" electricity="0.00" noise="60.37" route="!chegongzhuangxilu_west_T2.7" type="vt_car" waiting="0.00" lane=":J25_15_3" pos="16.13" speed="10.04" angle="197.85" x="-13.18" y="-606.40"/>
        <vehicle id="chegongzhuangxilu_west_T2.8" eclass="HBEFA3/PC_G_EU4" CO2="6059.56" CO="104.35" HC="0.62" NOx="2.57" PMx="0.12" fuel="1932.72" electricity="0.00" noise="67.20" route="!chegongzhuangxilu_west_T2.8" type="vt_car" waiting="0.00" lane=":J25_19_2" pos="27.75" speed="9.60" angle="153.71" x="5.29" y="-617.81"/>
        <vehicle id="chegongzhuangxilu_west_T2.9" eclass="HBEFA3/PC_G_EU4" CO2="2624.72" CO="164.78" HC="0.81" NOx="1.20" PMx="0.07" fuel="837.22" electricity="0.00" noise="55.94" route="!chegongzhuangxilu_west_T2.9" type="vt_car" waiting="75.00" lane="E9_3" pos="34.42" speed="0.00" angle="90.15" x="-32.53" y="355.51"/>
        <vehicle id="fuchenglu_east_T2.17" eclass="HBEFA3/PC_G_EU4" CO2="2624.72" CO="164.78" HC="0.81" NOx="1.20" PMx="0.07" fuel="837.22" electricity="0.00" noise="55.94" route="!fuchenglu_east_T2.17" type="vt_car" waiting="20.00" lane="E34_4" pos="81.46" speed="0.00" angle="274.23" x="31.74" y="-621.15"/>
        <vehicle id="fuchenglu_east_T2.18" eclass="HBEFA3/PC_G_EU4" CO2="2624.72" CO="164.78" HC="0.81" NOx="1.20" PMx="0.07" fuel="837.22" electricity="0.00" noise="55.94" route="!fuchenglu_east_T2.18" type="vt_car" waiting="6.00" lane="E34_5" pos="81.46" speed="0.00" angle="274.23" x="31.71" y="-624.16"/>
        <vehicle id="fuchenglu_east_T2.19" eclass="HBEFA3/PC_G_EU4" CO2="4326.69" CO="29.68" HC="0.24" NOx="1.62" PMx="0.06" fuel="1380.01" electricity="0.00" noise="66.42" route="!fuchenglu_east_T2.19" type="vt_car" waiting="0.00" lane="E33_3" pos="187.90" speed="14.81" angle="274.18" x="118.95" y="-625.14"/>
        <vehicle id="fuchenglu_east_T2.20" eclass="HBEFA3/PC_G_EU4" CO2="3575.00" CO="148.46" HC="0.76" NOx="1.59" PMx="0.08" fuel="1140.30" electricity="0.00" noise="66.17" route="!fuchenglu_east_T2.20" type="vt_car" waiting="0.00" lane="E33_4" pos="7.24" speed="2.14" angle="274.18" x="298.85" y="-642.30"/>
        <vehicle id="fuchenglu_east_T2.7" eclass="HBEFA3/PC_G_EU4" CO2="2624.72" CO="164.78" HC="0.81" NOx="1.20" PMx="0.07" fuel="837.22" electricity="0.00" noise="55.94" route="!fuchenglu_east_T2.7" type="vt_car" waiting="89.00" lane="E14_7" pos="38.18" speed="0.00" angle="359.88" x="1.55" y="332.52"/>
        <vehicle id="fuchenglu_west_T2.1" eclass="HBEFA3/PC_G_EU4" CO2="2624.72" CO="164.78" HC="0.81" NOx="1.20" PMx="0.07" fuel="837.22" electricity="0.00" noise="55.94" route="!fuchenglu_west_T2.1" type="vt_car" waiting="270.00" lane="E37_2" pos="100.50" speed="0.00" angle="94.20" x="-205.97" y="-633.55"/>
        <vehicle id="fuchenglu_west_T2.10" eclass="HBEFA3/PC_G_EU4" CO2="2624.72" CO="164.78" HC="0.81" NOx="1.20" PMx="0.07" fuel="837.22" electricity="0.00" noise="55.94" route="!fuchenglu_west_T2.10" type="vt_car" waiting="118.00" lane="E37_2" pos="78.00" speed="0.00" angle="94.20" x="-228.41" y="-631.91"/>
        <vehicle id="fuchenglu_west_T2.11" eclass="HBEFA3/PC_G_EU4" CO2="2624.72" CO="164.78" HC="0.81" NOx="1.20" PMx="0.07" fuel="837.22" electricity="0.00" noise="55.94" route="!fuchenglu_west_T2.11" type="vt_car" waiting="100.00" lane="E37_2" pos="70.49" speed="0.00" angle="94.20" x="-235.89" y="-631.36"/>
        <vehicle id="fuchenglu_west_T2.13" eclass="HBEFA3/PC_G_EU4" CO2="3994.33" CO="29.84" HC="0.23" NOx="1.49" PMx="0.06" fuel="1274.01" electricity="0.00" noise="65.61" route="!fuchenglu_west_T2.13" type="vt_car" waiting="0.00" lane="E27_3" pos="334.55" speed="13.60" angle="359.86" x="13.39" y="-258.01"/>
        <vehicle id="fuchenglu_west_T2.15" eclass="HBEFA3/PC_G_EU4" CO2="2624.72" CO="164.78" HC="0.81" NOx="1.20" PMx="0.07" fuel="837.22" electricity="0.00" noise="55.94" route="!fuchenglu_west_T2.15" type="vt_car" waiting="13.00" lane="E38_4" pos="88.87" speed="0.00" angle="94.39" x="-31.32" y="-635.65"/>
        <vehicle id="fuchenglu_west_T2.16" eclass="HBEFA3/PC_G_EU4" CO2="2619.16" CO="164.03" HC="0.81" NOx="1.20" PMx="0.07" fuel="835.45" electricity="0.00" noise="55.50" route="!fuchenglu_west_T2.16" type="vt_car" waiting="1.00" lane="E38_4" pos="81.36" speed="0.04" angle="94.39" x="-38.78" y="-635.08"/>
        <vehicle id="fuchenglu_west_T2.17" eclass="HBEFA3/PC_G_EU4" CO2="2595.76" CO="161.58" HC="0.80" NOx="1.19" PMx="0.06" fuel="827.98" electricity="0.00" noise="54.86" route="!fuchenglu_west_T2.17" type="vt_car" waiting="0.00" lane="E37_2" pos="62.99" speed="0.15" angle="94.20" x="-243.37" y="-630.81"/>
        <vehicle id="fuchenglu_west_T2.2" eclass="HBEFA3/PC_G_EU4" CO2="2624.72" CO="164.78" HC="0.81" NOx="1.20" PMx="0.07" fuel="837.22" electricity="0.00" noise="55.94" route="!fuchenglu_west_T2.2" type="vt_car" waiting="87.00" lane="E14_7" pos="30.68" speed="0.00" angle="359.88" x="1.57" y="325.00"/>
        <vehicle id="fuchenglu_west_T2.6" eclass="HBEFA3/PC_G_EU4" CO2="3844.48" CO="150.09" HC="0.77" NOx="1.71" PMx="0.09" fuel="1226.25" electricity="0.00" noise="67.36" route="!fuchenglu_west_T2.6" type="vt_car" waiting="0.00" lane="E29_4" pos="362.29" speed="2.39" angle="180.00" x="-10.26" y="-485.72"/>
        <vehicle id="fuchenglu_west_T2.8" eclass="HBEFA3/PC_G_EU4" CO2="2624.72" CO="164.78" HC="0.81" NOx="1.20" PMx="0.07" fuel="837.22" electricity="0.00" noise="55.94" route="!fuchenglu_west_T2.8" type="vt_car" waiting="151.00" lane="E37_2" pos="93.00" speed="0.00" angle="94.20" x="-213.45" y="-633.01"/>
        <vehicle id="fuchenglu_west_T2.9" eclass="HBEFA3/PC_G_EU4" CO2="2624.72" CO="164.78" HC="0.81" NOx="1.20" PMx="0.07" fuel="837.22" electricity="0.00" noise="55.94" route="!fuchenglu_west_T2.9" type="vt_car" waiting="134.00" lane="E37_2" pos="85.50" speed="0.00" angle="94.20" x="-220.93" y="-632.46"/>
        <vehicle id="shoutinanlu_north_T2.10" eclass="HBEFA3/PC_G_EU4" CO2="2624.72" CO="164.78" HC="0.81" NOx="1.20" PMx="0.07" fuel="837.22" electricity="0.00" noise="55.94" route="!shoutinanlu_north_T2.10" type="vt_car" waiting="177.00" lane="E13_8" pos="57.27" speed="0.00" angle="180.07" x="-2.36" y="397.39"/>
        <vehicle id="shoutinanlu_north_T2.11" eclass="HBEFA3/PC_G_EU4" CO2="2624.72" CO="164.78" HC="0.81" NOx="1.20" PMx="0.07" fuel="837.22" electricity="0.00" noise="55.94" route="!shoutinanlu_north_T2.11" type="vt_car" waiting="170.00" lane="E13_8" pos="49.77" speed="0.00" angle="180.07" x="-2.35" y="404.56"/>
        <vehicle id="shoutinanlu_north_T2.12" eclass="HBEFA3/PC_G_EU4" CO2="2624.72" CO="164.78" HC="0.81" NOx="1.20" PMx="0.07" fuel="837.22" electricity="0.00" noise="55.94" route="!shoutinanlu_north_T2.12" type="vt_car" waiting="15.00" lane="E17_7" pos="49.34" speed="0.00" angle="180.12" x="-2.33" y="-84.24"/>
        <vehicle id="shoutinanlu_north_T2.13" eclass="HBEFA3/PC_G_EU4" CO2="2624.72" CO="164.78" HC="0.81" NOx="1.20" PMx="0.07" fuel="837.22" electricity="0.00" noise="55.94" route="!shoutinanlu_north_T2.13" type="vt_car" waiting="17.00" lane="E17_4" pos="49.34" speed="0.00" angle="180.12" x="-11.33" y="-84.21"/>
        <vehicle id="shoutinanlu_north_T2.14" eclass="HBEFA3/PC_G_EU4" CO2="2624.72" CO="164.78" HC="0.81" NOx="1.20" PMx="0.07" fuel="837.22" electricity="0.00" noise="55.94" route="!shoutinanlu_north_T2.14" type="vt_car" waiting="19.00" lane="E17_5" pos="49.34" speed="0.00" angle="180.12" x="-8.33" y="-84.22"/>
        <vehicle id="shoutinanlu_north_T2.15" eclass="HBEFA3/PC_G_EU4" CO2="2624.72" CO="164.78" HC="0.81" NOx="1.20" PMx="0.07" fuel="837.22" electricity="0.00" noise="55.94" route="!shoutinanlu_north_T2.15" type="vt_car" waiting="15.00" lane="E17_4" pos="41.84" speed="0.00" angle="180.12" x="-11.32" y="-76.71"/>
        <vehicle id="shoutinanlu_north_T2.17" eclass="HBEFA3/PC_G_EU4" CO2="5250.46" CO="55.77" HC="0.38" NOx="2.09" PMx="0.09" fuel="1674.65" electricity="0.00" noise="66.68" route="!shoutinanlu_north_T2.17" type="vt_car" waiting="0.00" lane="E25_2" pos="151.03" speed="13.59" angle="270.03" x="-236.84" y="-105.67"/>
        <vehicle id="shoutinanlu_north_T2.18" eclass="HBEFA3/PC_G_EU4" CO2="2624.72" CO="164.78" HC="0.81" NOx="1.20" PMx="0.07" fuel="837.22" electricity="0.00" noise="55.94" route="!shoutinanlu_north_T2.18" type="vt_car" waiting="9.00" lane="E17_5" pos="41.84" speed="0.00" angle="180.12" x="-8.32" y="-76.72"/>
        <vehicle id="shoutinanlu_north_T2.20" eclass="HBEFA3/PC_G_EU4" CO2="2624.72" CO="164.78" HC="0.81" NOx="1.20" PMx="0.07" fuel="837.22" electricity="0.00" noise="55.94" route="!shoutinanlu_north_T2.20" type="vt_car" waiting="14.00" lane="E17_6" pos="56.84" speed="0.00" angle="180.12" x="-5.35" y="-91.73"/>
        <vehicle id="shoutinanlu_north_T2.22" eclass="HBEFA3/PC_G_EU4" CO2="2624.72" CO="164.78" HC="0.81" NOx="1.20" PMx="0.07" fuel="837.22" electricity="0.00" noise="55.94" route="!shoutinanlu_north_T2.22" type="vt_car" waiting="5.00" lane="E17_6" pos="41.84" speed="0.00" angle="180.12" x="-5.32" y="-76.73"/>
        <vehicle id="shoutinanlu_north_T2.23" eclass="HBEFA3/PC_G_EU4" CO2="2624.72" CO="164.78" HC="0.81" NOx="1.20" PMx="0.07" fuel="837.22" electricity="0.00" noise="55.94" route="!shoutinanlu_north_T2.23" type="vt_car" waiting="9.00" lane="E17_6" pos="49.34" speed="0.00" angle="180.12" x="-5.33" y="-84.23"/>
        <vehicle id="shoutinanlu_north_T2.27" eclass="HBEFA3/PC_G_EU4" CO2="3097.86" CO="8.37" HC="0.11" NOx="1.06" PMx="0.03" fuel="988.08" electricity="0.00" noise="65.20" route="!shoutinanlu_north_T2.27" type="vt_car" waiting="0.00" lane="E16_3" pos="271.38" speed="14.10" angle="179.97" x="-13.91" y="62.00"/>
        <vehicle id="shoutinanlu_north_T2.28" eclass="HBEFA3/PC_G_EU4" CO2="0.00" CO="0.00" HC="0.00" NOx="0.00" PMx="0.00" fuel="0.00" electricity="0.00" noise="63.32" route="!shoutinanlu_north_T2.28" type="vt_car" waiting="0.00" lane="E16_3" pos="139.53" speed="13.55" angle="179.97" x="-13.97" y="193.84"/>
        <vehicle id="shoutinanlu_north_T2.29" eclass="HBEFA3/PC_G_EU4" CO2="0.00" CO="0.00" HC="0.00" NOx="0.00" PMx="0.00" fuel="0.00" electricity="0.00" noise="62.51" route="!shoutinanlu_north_T2.29" type="vt_car" waiting="0.00" lane="E16_4" pos="8.58" speed="12.13" angle="179.97" x="-10.29" y="324.83"/>
        <vehicle id="shoutinanlu_north_T2.3" eclass="HBEFA3/PC_G_EU4" CO2="2624.72" CO="164.78" HC="0.81" NOx="1.20" PMx="0.07" fuel="837.22" electricity="0.00" noise="55.94" route="!shoutinanlu_north_T2.3" type="vt_car" waiting="245.00" lane="E13_3" pos="57.27" speed="0.00" angle="180.12" x="-18.09" y="397.38"/>
        <vehicle id="shoutinanlu_north_T2.30" eclass="HBEFA3/PC_G_EU4" CO2="0.00" CO="0.00" HC="0.00" NOx="0.00" PMx="0.00" fuel="0.00" electricity="0.00" noise="64.06" route="!shoutinanlu_north_T2.30" type="vt_car" waiting="0.00" lane="E13_2" pos="22.61" speed="14.20" angle="180.09" x="-21.03" y="437.22"/>
        <vehicle id="shoutinanlu_north_T2.31" eclass="HBEFA3/PC_G_EU4" CO2="4116.26" CO="35.96" HC="0.26" NOx="1.56" PMx="0.06" fuel="1312.90" electricity="0.00" noise="65.45" route="!shoutinanlu_north_T2.31" type="vt_car" waiting="0.00" lane="E10_5" pos="113.21" speed="13.05" angle="180.05" x="-9.41" y="562.63"/>
        <vehicle id="shoutinanlu_north_T2.32" eclass="HBEFA3/PC_G_EU4" CO2="4302.83" CO="141.25" HC="0.74" NOx="1.90" PMx="0.09" fuel="1372.43" electricity="0.00" noise="66.96" route="!shoutinanlu_north_T2.32" type="vt_car" waiting="0.00" lane="E10_2" pos="10.10" speed="3.59" angle="180.05" x="-20.81" y="665.75"/>
        <vehicle id="shoutinanlu_north_T2.5" eclass="HBEFA3/PC_G_EU4" CO2="2624.72" CO="164.78" HC="0.81" NOx="1.20" PMx="0.07" fuel="837.22" electricity="0.00" noise="55.94" route="!shoutinanlu_north_T2.5" type="vt_car" waiting="26.00" lane="E17_4" pos="56.84" speed="0.00" angle="180.12" x="-11.35" y="-91.71"/>
        <vehicle id="shoutinanlu_north_T2.6" eclass="HBEFA3/PC_G_EU4" CO2="2624.72" CO="164.78" HC="0.81" NOx="1.20" PMx="0.07" fuel="837.22" electricity="0.00" noise="55.94" route="!shoutinanlu_north_T2.6" type="vt_car" waiting="17.00" lane="E17_7" pos="56.84" speed="0.00" angle="180.12" x="-2.35" y="-91.74"/>
        <vehicle id="shoutinanlu_north_T2.7" eclass="HBEFA3/PC_G_EU4" CO2="2624.72" CO="164.78" HC="0.81" NOx="1.20" PMx="0.07" fuel="837.22" electricity="0.00" noise="55.94" route="!shoutinanlu_north_T2.7" type="vt_car" waiting="22.00" lane="E17_5" pos="56.84" speed="0.00" angle="180.12" x="-8.35" y="-91.72"/>
        <vehicle id="shoutinanlu_north_T2.9" eclass="HBEFA3/PC_G_EU4" CO2="2624.72" CO="164.78" HC="0.81" NOx="1.20" PMx="0.07" fuel="837.22" electricity="0.00" noise="55.94" route="!shoutinanlu_north_T2.9" type="vt_car" waiting="189.00" lane="E13_7" pos="57.27" speed="0.00" angle="180.06" x="-5.88" y="397.38"/>
        <vehicle id="zengguanglu_east_T2.1" eclass="HBEFA3/PC_G_EU4" CO2="2624.72" CO="164.78" HC="0.81" NOx="1.20" PMx="0.07" fuel="837.22" electricity="0.00" noise="55.94" route="!zengguanglu_east_T2.1" type="vt_car" waiting="247.00" lane="E18_2" pos="75.30" speed="0.00" angle="269.96" x="32.40" y="-105.01"/>
        <vehicle id="zengguanglu_east_T2.10" eclass="HBEFA3/PC_G_EU4" CO2="2624.72" CO="164.78" HC="0.81" NOx="1.20" PMx="0.07" fuel="837.22" electricity="0.00" noise="55.94" route="!zengguanglu_east_T2.10" type="vt_car" waiting="9.00" lane="E18_2" pos="60.30" speed="0.00" angle="269.96" x="47.40" y="-105.00"/>
        <vehicle id="zengguanglu_east_T2.11" eclass="HBEFA3/PC_G_EU4" CO2="0.00" CO="0.00" HC="0.00" NOx="0.00" PMx="0.00" fuel="0.00" electricity="0.00" noise="56.51" route="!zengguanglu_east_T2.11" type="vt_car" waiting="0.00" lane=":J16_17_0" pos="0.57" speed="6.16" angle="269.96" x="30.86" y="-108.01"/>
        <vehicle id="zengguanglu_east_T2.5" eclass="HBEFA3/PC_G_EU4" CO2="7480.76" CO="126.94" HC="0.76" NOx="3.22" PMx="0.15" fuel="2386.00" electricity="0.00" noise="69.24" route="!zengguanglu_east_T2.5" type="vt_car" waiting="0.00" lane=":J25_19_0" pos="29.89" speed="10.31" angle="154.19" x="-1.03" y="-619.63"/>