<?xml version="1.0" encoding="UTF-8"?>

<!-- generated on 09/18/19 11:42:10 by Eclipse SUMO GUI Version 1.2.0
<configuration xmlns:xsi="http://www.w3.org/2001/XMLSchema-instance" xsi:noNamespaceSchemaLocation="http://sumo.dlr.de/xsd/sumoConfiguration.xsd">

    <input>
        <net-file value="C:\Users\pc\Documents\My_SUMO\test\simpleTest.net.xml"/>
        <route-files value="C:\Users\pc\Documents\My_SUMO\test\simpleTest.rou.xml"/>
    </input>

    <output>
        <write-license value="true"/>
        <vehroute-output value="C:\Users\pc\Documents\My_SUMO\test\vehroutesSimpletest.xml"/>
    </output>

    <processing>
        <default.speeddev value="0"/>
    </processing>

    <report>
        <duration-log.disable value="true"/>
        <no-step-log value="true"/>
    </report>

</configuration>
-->

<routes xmlns:xsi="http://www.w3.org/2001/XMLSchema-instance" xsi:noNamespaceSchemaLocation="http://sumo.dlr.de/xsd/routes_file.xsd">
    <vehicle id="18" depart="18.00" arrival="49.00">
        <route edges="gneE1 gneE2"/>
    </vehicle>

    <vehicle id="0" depart="0.00" arrival="52.00">
        <route edges="E0 gneE0"/>
    </vehicle>

    <vehicle id="1" depart="1.00" arrival="60.00">
        <route edges="E3 gneE2"/>
    </vehicle>

    <vehicle id="12" depart="12.00" arrival="61.00">
        <route edges="gneE1 E2"/>
    </vehicle>

    <vehicle id="5" depart="5.00" arrival="63.00">
        <route edges="gneE3 gneE2"/>
    </vehicle>

    <vehicle id="13" depart="13.00" arrival="66.00">
        <route edges="gneE3 gneE0"/>
    </vehicle>

    <vehicle id="8" depart="13.00" arrival="71.00">
        <route edges="E3 gneE0"/>
    </vehicle>

    <vehicle id="3" depart="7.00" arrival="81.00">
        <route edges="E3 E2"/>
    </vehicle>

    <vehicle id="2" depart="4.00" arrival="84.00">
        <route edges="E3 E1"/>
    </vehicle>

    <vehicle id="23" depart="23.00" arrival="89.00">
        <route edges="gneE3 E1"/>
    </vehicle>

    <vehicle id="6" depart="10.00" arrival="90.00">
        <route edges="E3 E1"/>
    </vehicle>

    <vehicle id="9" depart="16.00" arrival="90.00">
        <route edges="E3 E2"/>
    </vehicle>

    <vehicle id="34" depart="34.00" arrival="91.00">
        <route edges="gneE3 E1"/>
    </vehicle>

    <vehicle id="10" depart="19.00" arrival="93.00">
        <route edges="E3 E2"/>
    </vehicle>

    <vehicle id="16" depart="22.00" arrival="95.00">
        <route edges="E3 E2"/>
    </vehicle>

    <vehicle id="55" depart="55.00" arrival="100.00">
        <route edges="gneE3 E2"/>
    </vehicle>

    <vehicle id="19" depart="25.00" arrival="102.00">
        <route edges="E3 E1"/>
    </vehicle>

    <vehicle id="20" depart="28.00" arrival="109.00">
        <route edges="E3 E1"/>
    </vehicle>

    <vehicle id="26" depart="27.00" arrival="109.00">
        <route edges="E0 gneE0"/>
    </vehicle>

    <vehicle id="4" depart="4.00" arrival="110.00">
        <route edges="E0 gneE2"/>
    </vehicle>

    <vehicle id="25" depart="37.00" arrival="110.00">
        <route edges="E3 E2"/>
    </vehicle>

    <vehicle id="21" depart="31.00" arrival="111.00">
        <route edges="E3 E1"/>
    </vehicle>

    <vehicle id="31" depart="31.00" arrival="111.00">
        <route edges="E0 gneE0"/>
    </vehicle>

    <vehicle id="14" depart="14.00" arrival="113.00">
        <route edges="E0 gneE2"/>
    </vehicle>

    <vehicle id="22" depart="34.00" arrival="113.00">
        <route edges="E3 E1"/>
    </vehicle>

    <vehicle id="67" depart="67.00" arrival="113.00">
        <route edges="gneE3 E2"/>
    </vehicle>

    <vehicle id="35" depart="37.00" arrival="115.00">
        <route edges="E0 gneE0"/>
    </vehicle>

    <vehicle id="64" depart="64.00" arrival="115.00">
        <route edges="gneE3 E1"/>
    </vehicle>

    <vehicle id="15" depart="17.00" arrival="117.00">
        <route edges="E0 gneE2"/>
    </vehicle>

    <vehicle id="41" depart="47.00" arrival="117.00">
        <route edges="E0 gneE0"/>
    </vehicle>

    <vehicle id="27" depart="40.00" arrival="121.00">
        <route edges="E3 E1"/>
    </vehicle>

    <vehicle id="11" depart="11.00" arrival="122.00">
        <route edges="E0 E2"/>
    </vehicle>

    <vehicle id="24" depart="24.00" arrival="122.00">
        <route edges="E0 gneE2"/>
    </vehicle>

    <vehicle id="30" depart="34.00" arrival="125.00">
        <route edges="gneE1 gneE0"/>
    </vehicle>

    <vehicle id="39" depart="44.00" arrival="125.00">
        <route edges="E0 gneE2"/>
    </vehicle>

    <vehicle id="46" depart="46.00" arrival="127.00">
        <route edges="gneE1 E1"/>
    </vehicle>

    <vehicle id="28" depart="28.00" arrival="128.00">
        <route edges="gneE1 E1"/>
    </vehicle>

    <vehicle id="32" depart="34.00" arrival="128.00">
        <route edges="E0 E2"/>
    </vehicle>

    <vehicle id="62" depart="62.00" arrival="129.00">
        <route edges="gneE1 E1"/>
    </vehicle>

    <vehicle id="69" depart="77.00" arrival="129.00">
        <route edges="E0 gneE0"/>
    </vehicle>

    <vehicle id="56" depart="56.00" arrival="130.00">
        <route edges="gneE1 E1"/>
    </vehicle>

    <vehicle id="71" depart="80.00" arrival="132.00">
        <route edges="E0 gneE0"/>
    </vehicle>

    <vehicle id="7" depart="7.00" arrival="133.00">
        <route edges="E0 E1"/>
    </vehicle>

    <vehicle id="49" depart="59.00" arrival="134.00">
        <route edges="E0 gneE2"/>
    </vehicle>

    <vehicle id="59" depart="65.00" arrival="134.00">
        <route edges="E0 E2"/>
    </vehicle>

    <vehicle id="29" depart="31.00" arrival="138.00">
        <route edges="gneE1 E2"/>
    </vehicle>

    <vehicle id="17" depart="20.00" arrival="140.00">
        <route edges="E0 E1"/>
    </vehicle>

    <vehicle id="37" depart="41.00" arrival="145.00">
        <route edges="E0 E1"/>
    </vehicle>

    <vehicle id="87" depart="92.00" arrival="145.00">
        <route edges="E0 gneE0"/>
    </vehicle>

    <vehicle id="33" depart="43.00" arrival="150.00">
        <route edges="E3 gneE2"/>
    </vehicle>

    <vehicle id="42" depart="50.00" arrival="150.00">
        <route edges="E0 E1"/>
    </vehicle>

    <vehicle id="45" depart="53.00" arrival="152.00">
        <route edges="E0 E1"/>
    </vehicle>

    <vehicle id="70" depart="70.00" arrival="153.00">
        <route edges="gneE3 gneE0"/>
    </vehicle>

    <vehicle id="91" depart="91.00" arrival="153.00">
        <route edges="gneE3 gneE2"/>
    </vehicle>

    <vehicle id="36" depart="46.00" arrival="154.00">
        <route edges="E3 gneE0"/>
    </vehicle>

    <vehicle id="48" depart="56.00" arrival="154.00">
        <route edges="E0 E1"/>
    </vehicle>

    <vehicle id="82" depart="89.00" arrival="156.00">
        <route edges="E0 E2"/>
    </vehicle>

    <vehicle id="43" depart="56.00" arrival="159.00">
        <route edges="E3 gneE2"/>
    </vehicle>

    <vehicle id="51" depart="62.00" arrival="160.00">
        <route edges="E0 E1"/>
    </vehicle>

    <vehicle id="60" depart="68.00" arrival="161.00">
        <route edges="E0 E1"/>
    </vehicle>

    <vehicle id="63" depart="71.00" arrival="164.00">
        <route edges="E0 E1"/>
    </vehicle>

    <vehicle id="68" depart="74.00" arrival="166.00">
        <route edges="E0 E1"/>
    </vehicle>

    <vehicle id="50" depart="65.00" arrival="167.00">
        <route edges="E3 gneE2"/>
    </vehicle>

    <vehicle id="52" depart="68.00" arrival="169.00">
        <route edges="E3 gneE2"/>
    </vehicle>

    <vehicle id="38" depart="49.00" arrival="177.00">
        <route edges="E3 E1"/>
    </vehicle>

    <vehicle id="40" depart="52.00" arrival="179.00">
        <route edges="E3 E1"/>
    </vehicle>

    <vehicle id="44" depart="59.00" arrival="185.00">
        <route edges="E3 E1"/>
    </vehicle>

    <vehicle id="66" depart="89.00" arrival="185.00">
        <route edges="E3 gneE2"/>
    </vehicle>

    <vehicle id="47" depart="62.00" arrival="187.00">
        <route edges="E3 E1"/>
    </vehicle>

    <vehicle id="53" depart="71.00" arrival="190.00">
        <route edges="E3 E2"/>
    </vehicle>

    <vehicle id="58" depart="80.00" arrival="195.00">
        <route edges="E3 E2"/>
    </vehicle>

    <vehicle id="54" depart="74.00" arrival="196.00">
        <route edges="E3 E1"/>
    </vehicle>

    <vehicle id="57" depart="77.00" arrival="198.00">
        <route edges="E3 E1"/>
    </vehicle>

    <vehicle id="61" depart="83.00" arrival="198.00">
        <route edges="E3 E2"/>
    </vehicle>

    <vehicle id="96" depart="96.00" arrival="202.00">
        <route edges="gneE1 gneE0"/>
    </vehicle>

    <vehicle id="99" depart="101.00" arrival="202.00">
        <route edges="E0 gneE2"/>
    </vehicle>

    <vehicle id="65" depart="86.00" arrival="205.00">
        <route edges="E3 E1"/>
    </vehicle>

    <vehicle id="72" depart="92.00" arrival="210.00">
        <route edges="E3 E1"/>
    </vehicle>

    <vehicle id="90" depart="95.00" arrival="212.00">
        <route edges="E0 E2"/>
    </vehicle>

    <vehicle id="94" depart="94.00" arrival="215.00">
        <route edges="gneE1 E2"/>
    </vehicle>

    <vehicle id="73" depart="83.00" arrival="218.00">
        <route edges="E0 E1"/>
    </vehicle>

    <vehicle id="75" depart="86.00" arrival="220.00">
        <route edges="E0 E1"/>
    </vehicle>

    <vehicle id="93" depart="98.00" arrival="222.00">
        <route edges="E0 E1"/>
    </vehicle>

    <vehicle id="74" depart="95.00" arrival="242.00">
        <route edges="E3 gneE0"/>
    </vehicle>

    <vehicle id="77" depart="101.00" arrival="261.00">
        <route edges="E3 E2"/>
    </vehicle>

    <vehicle id="85" depart="122.00" arrival="262.00">
        <route edges="E3 gneE0"/>
    </vehicle>

    <vehicle id="76" depart="98.00" arrival="264.00">
        <route edges="E3 E1"/>
    </vehicle>

    <vehicle id="79" depart="107.00" arrival="266.00">
        <route edges="E3 E2"/>
    </vehicle>

    <vehicle id="78" depart="104.00" arrival="268.00">
        <route edges="E3 E1"/>
    </vehicle>

    <vehicle id="80" depart="110.00" arrival="268.00">
        <route edges="E3 E2"/>
    </vehicle>

    <vehicle id="81" depart="113.00" arrival="271.00">
        <route edges="E3 E2"/>
    </vehicle>

    <vehicle id="84" depart="119.00" arrival="275.00">
        <route edges="E3 E2"/>
    </vehicle>

    <vehicle id="83" depart="116.00" arrival="278.00">
        <route edges="E3 E1"/>
    </vehicle>

    <vehicle id="86" depart="125.00" arrival="285.00">
        <route edges="E3 E1"/>
    </vehicle>

    <vehicle id="89" depart="131.00" arrival="285.00">
        <route edges="E3 E2"/>
    </vehicle>

    <vehicle id="88" depart="128.00" arrival="288.00">
        <route edges="E3 E1"/>
    </vehicle>

    <vehicle id="95" depart="137.00" arrival="289.00">
        <route edges="E3 E2"/>
    </vehicle>

    <vehicle id="92" depart="134.00" arrival="292.00">
        <route edges="E3 E1"/>
    </vehicle>

    <vehicle id="97" depart="140.00" arrival="292.00">
        <route edges="E3 E2"/>
    </vehicle>

    <vehicle id="98" depart="143.00" arrival="300.00">
        <route edges="E3 E1"/>
    </vehicle>

</routes>
