<?xml version="1.0" encoding="UTF-8"?>

<!-- generated on 2023-08-30 21:09:14 by Eclipse SUMO GUI Version 1.18.0
<configuration xmlns:xsi="http://www.w3.org/2001/XMLSchema-instance" xsi:noNamespaceSchemaLocation="http://sumo.dlr.de/xsd/sumoConfiguration.xsd">

    <input>
        <net-file value="C:\Users\ASUS\Desktop\第四章\4.3路网\example43.net.xml"/>
        <route-files value="C:\Users\ASUS\Desktop\第四章\4.3路网\od2trips_way2.rou.xml"/>
        <additional-files value="C:\Users\ASUS\Desktop\第四章\4.3路网\example43_taz_def.add.xml"/>
    </input>

    <output>
        <queue-output value="C:\Users\ASUS\Desktop\第四章\4.3路网\queue_data.xml"/>
        <edgedata-output value="C:\Users\ASUS\Desktop\第四章\4.3路网\edgedata_data.xml"/>
        <lanedata-output value="C:\Users\ASUS\Desktop\第四章\4.3路网\lanedata_data.xml"/>
    </output>

    <report>
        <error-log value="C:\Users\ASUS\Desktop\第四章\4.3路网\error_log.xml"/>
    </report>

</configuration>
-->

<meandata xmlns:xsi="http://www.w3.org/2001/XMLSchema-instance" xsi:noNamespaceSchemaLocation="http://sumo.dlr.de/xsd/meandata_file.xsd">
    <interval begin="0.00" end="6687.00" id="DEFAULT_EDGEDATA">
        <edge id="-E01" sampledSeconds="31359.46" traveltime="22.10" overlapTraveltime="22.48" density="16.87" laneDensity="4.22" occupancy="2.08" waitingTime="0.00" timeLoss="2667.79" speed="12.59" speedRelative="0.91" departed="0" arrived="1400" entered="1400" left="0" laneChangedFrom="502" laneChangedTo="502"/>
        <edge id="-E02" sampledSeconds="13187.34" traveltime="21.69" overlapTraveltime="22.07" density="7.09" laneDensity="1.77" occupancy="0.87" waitingTime="0.00" timeLoss="882.75" speed="12.82" speedRelative="0.92" departed="0" arrived="570" entered="600" left="0" laneChangedFrom="153" laneChangedTo="155"/>
        <edge id="-E03" sampledSeconds="28800.79" traveltime="21.85" overlapTraveltime="22.23" density="15.49" laneDensity="3.87" occupancy="1.90" waitingTime="0.00" timeLoss="1974.07" speed="12.73" speedRelative="0.92" departed="0" arrived="1300" entered="1300" left="0" laneChangedFrom="413" laneChangedTo="413"/>
        <edge id="-E04" sampledSeconds="10973.77" traveltime="21.65" overlapTraveltime="22.03" density="5.90" laneDensity="1.48" occupancy="0.73" waitingTime="0.00" timeLoss="763.43" speed="12.84" speedRelative="0.92" departed="0" arrived="500" entered="500" left="0" laneChangedFrom="200" laneChangedTo="200"/>
        <edge id="-E05" sampledSeconds="24507.49" traveltime="21.97" overlapTraveltime="22.36" density="13.18" laneDensity="3.30" occupancy="1.62" waitingTime="0.00" timeLoss="1819.54" speed="12.66" speedRelative="0.91" departed="0" arrived="1100" entered="1100" left="0" laneChangedFrom="396" laneChangedTo="396"/>
        <edge id="-E06" sampledSeconds="24019.18" traveltime="21.53" overlapTraveltime="21.91" density="12.92" laneDensity="3.23" occupancy="1.59" waitingTime="0.00" timeLoss="1632.79" speed="12.91" speedRelative="0.93" departed="0" arrived="1100" entered="1100" left="0" laneChangedFrom="367" laneChangedTo="367"/>
        <edge id="-E07" sampledSeconds="13344.98" traveltime="21.94" overlapTraveltime="22.32" density="7.18" laneDensity="1.79" occupancy="0.88" waitingTime="0.00" timeLoss="1031.59" speed="12.68" speedRelative="0.91" departed="0" arrived="600" entered="600" left="0" laneChangedFrom="229" laneChangedTo="229"/>
        <edge id="-E08" sampledSeconds="13093.15" traveltime="21.52" overlapTraveltime="21.90" density="7.04" laneDensity="1.76" occupancy="0.86" waitingTime="0.00" timeLoss="927.30" speed="12.92" speedRelative="0.93" departed="0" arrived="600" entered="600" left="0" laneChangedFrom="177" laneChangedTo="177"/>
        <edge id="-E09" sampledSeconds="13388.93" traveltime="22.01" overlapTraveltime="22.40" density="7.20" laneDensity="1.80" occupancy="0.88" waitingTime="0.00" timeLoss="1081.12" speed="12.63" speedRelative="0.91" departed="0" arrived="600" entered="600" left="0" laneChangedFrom="199" laneChangedTo="199"/>
        <edge id="-E1" sampledSeconds="45086.66" traveltime="35.21" overlapTraveltime="36.10" density="26.34" laneDensity="6.58" occupancy="3.23" waitingTime="11890.00" timeLoss="21280.36" speed="7.23" speedRelative="0.52" departed="0" arrived="0" entered="1249" left="1249" laneChangedFrom="804" laneChangedTo="804"/>
        <edge id="-E10" sampledSeconds="13424.84" traveltime="22.08" overlapTraveltime="22.46" density="7.22" laneDensity="1.81" occupancy="0.89" waitingTime="0.00" timeLoss="1127.66" speed="12.60" speedRelative="0.91" departed="0" arrived="600" entered="600" left="0" laneChangedFrom="182" laneChangedTo="182"/>
        <edge id="-E101" sampledSeconds="72322.01" traveltime="88.83" overlapTraveltime="89.40" density="42.25" laneDensity="10.56" occupancy="5.25" waitingTime="43631.77" timeLoss="56915.20" speed="2.92" speedRelative="0.21" departed="0" arrived="0" entered="809" left="809" laneChangedFrom="369" laneChangedTo="369"/>
        <edge id="-E11" sampledSeconds="8903.59" traveltime="21.95" overlapTraveltime="22.34" density="4.79" laneDensity="1.20" occupancy="0.59" waitingTime="0.00" timeLoss="672.48" speed="12.67" speedRelative="0.91" departed="0" arrived="400" entered="400" left="0" laneChangedFrom="144" laneChangedTo="144"/>
        <edge id="-E111" sampledSeconds="44701.59" traveltime="67.94" overlapTraveltime="68.77" density="26.11" laneDensity="6.53" occupancy="3.23" waitingTime="26134.00" timeLoss="32268.40" speed="3.80" speedRelative="0.27" departed="0" arrived="0" entered="650" left="650" laneChangedFrom="162" laneChangedTo="162"/>
        <edge id="-E12" sampledSeconds="8868.16" traveltime="21.86" overlapTraveltime="22.25" density="4.77" laneDensity="1.19" occupancy="0.58" waitingTime="0.00" timeLoss="642.86" speed="12.72" speedRelative="0.92" departed="0" arrived="400" entered="400" left="0" laneChangedFrom="122" laneChangedTo="122"/>
        <edge id="-E13" sampledSeconds="61746.06" traveltime="266.24" overlapTraveltime="287.37" density="36.07" laneDensity="9.02" occupancy="4.35" waitingTime="51996.00" timeLoss="57650.93" speed="0.91" speedRelative="0.07" departed="0" arrived="0" entered="215" left="215" laneChangedFrom="221" laneChangedTo="221" teleported="3"/>
        <edge id="-E14" sampledSeconds="20628.30" traveltime="39.78" overlapTraveltime="40.61" density="12.05" laneDensity="3.01" occupancy="1.48" waitingTime="6428.00" timeLoss="10903.12" speed="6.43" speedRelative="0.46" departed="0" arrived="0" entered="508" left="508" laneChangedFrom="550" laneChangedTo="550"/>
        <edge id="-E16" sampledSeconds="87322.39" traveltime="95.11" overlapTraveltime="96.81" density="51.01" laneDensity="12.75" occupancy="6.31" waitingTime="46426.00" timeLoss="70211.97" speed="2.70" speedRelative="0.19" departed="0" arrived="0" entered="902" left="902" laneChangedFrom="467" laneChangedTo="467"/>
        <edge id="-E17" sampledSeconds="86761.38" traveltime="129.46" overlapTraveltime="131.69" density="50.68" laneDensity="12.67" occupancy="6.27" waitingTime="45676.00" timeLoss="74217.55" speed="1.98" speedRelative="0.14" departed="0" arrived="0" entered="659" left="659" laneChangedFrom="1083" laneChangedTo="1083"/>
        <edge id="-E18" sampledSeconds="146606.08" traveltime="580.29" overlapTraveltime="601.38" density="85.64" laneDensity="21.41" occupancy="10.42" waitingTime="124583.42" timeLoss="141997.26" speed="0.43" speedRelative="0.03" departed="0" arrived="0" entered="245" left="244" laneChangedFrom="418" laneChangedTo="418" teleported="4"/>
        <edge id="-E2" sampledSeconds="52150.83" traveltime="100.29" overlapTraveltime="101.68" density="30.46" laneDensity="7.62" occupancy="3.77" waitingTime="36255.00" timeLoss="42398.59" speed="2.57" speedRelative="0.18" departed="0" arrived="0" entered="513" left="513" laneChangedFrom="235" laneChangedTo="235" teleported="2"/>
        <edge id="-E20" sampledSeconds="36527.17" traveltime="34.80" overlapTraveltime="36.28" density="21.34" laneDensity="5.33" occupancy="2.59" waitingTime="6765.00" timeLoss="17328.24" speed="7.20" speedRelative="0.52" departed="0" arrived="0" entered="1007" left="1007" laneChangedFrom="903" laneChangedTo="903"/>
        <edge id="-E21" sampledSeconds="50761.17" traveltime="47.21" overlapTraveltime="48.50" density="29.65" laneDensity="7.41" occupancy="3.64" waitingTime="14292.00" timeLoss="30710.90" speed="5.38" speedRelative="0.39" departed="0" arrived="0" entered="1047" left="1040" laneChangedFrom="1007" laneChangedTo="1007"/>
        <edge id="-E9" sampledSeconds="95905.34" traveltime="167.38" overlapTraveltime="168.40" density="56.02" laneDensity="14.01" occupancy="6.97" waitingTime="64815.31" timeLoss="85027.91" speed="1.55" speedRelative="0.11" departed="0" arrived="0" entered="571" left="527" laneChangedFrom="179" laneChangedTo="179"/>
        <edge id="E01" sampledSeconds="318196.74" traveltime="201.73" overlapTraveltime="202.61" density="171.17" laneDensity="42.79" occupancy="21.35" waitingTime="221127.00" timeLoss="285560.27" speed="1.40" speedRelative="0.10" departed="1600" arrived="0" entered="0" left="1600" laneChangedFrom="3372" laneChangedTo="3372" teleported="2"/>
        <edge id="E02" sampledSeconds="359208.57" traveltime="303.97" overlapTraveltime="307.76" density="193.23" laneDensity="48.31" occupancy="23.96" waitingTime="292113.88" timeLoss="334919.19" speed="0.92" speedRelative="0.07" departed="1200" arrived="0" entered="0" left="1200" laneChangedFrom="1621" laneChangedTo="1621" teleported="22"/>
        <edge id="E03" sampledSeconds="52002.07" traveltime="64.55" overlapTraveltime="66.20" density="27.97" laneDensity="6.99" occupancy="3.45" waitingTime="25140.29" timeLoss="35790.65" speed="4.27" speedRelative="0.31" departed="800" arrived="0" entered="0" left="800" laneChangedFrom="832" laneChangedTo="832" teleported="1"/>
        <edge id="E04" sampledSeconds="10795.39" traveltime="53.97" overlapTraveltime="54.98" density="5.81" laneDensity="1.45" occupancy="0.72" waitingTime="5526.00" timeLoss="6678.67" speed="5.15" speedRelative="0.37" departed="200" arrived="0" entered="0" left="200" laneChangedFrom="258" laneChangedTo="258"/>
        <edge id="E05" sampledSeconds="75337.93" traveltime="94.43" overlapTraveltime="95.90" density="40.53" laneDensity="10.13" occupancy="5.03" waitingTime="41420.00" timeLoss="59046.10" speed="2.95" speedRelative="0.21" departed="800" arrived="0" entered="0" left="800" laneChangedFrom="870" laneChangedTo="870"/>
        <edge id="E06" sampledSeconds="410384.52" traveltime="418.64" overlapTraveltime="420.52" density="220.76" laneDensity="55.19" occupancy="27.53" waitingTime="337158.00" timeLoss="390382.82" speed="0.67" speedRelative="0.05" departed="1000" arrived="0" entered="0" left="1000" laneChangedFrom="2492" laneChangedTo="2492" teleported="7"/>
        <edge id="E07" sampledSeconds="21003.01" traveltime="34.65" overlapTraveltime="35.65" density="11.30" laneDensity="2.82" occupancy="1.39" waitingTime="5771.00" timeLoss="8761.10" speed="7.94" speedRelative="0.57" departed="600" arrived="0" entered="0" left="600" laneChangedFrom="726" laneChangedTo="726"/>
        <edge id="E08" sampledSeconds="30934.08" traveltime="38.54" overlapTraveltime="39.38" density="16.64" laneDensity="4.16" occupancy="2.06" waitingTime="8977.00" timeLoss="14765.70" speed="7.19" speedRelative="0.52" departed="800" arrived="0" entered="0" left="800" laneChangedFrom="1003" laneChangedTo="1003"/>
        <edge id="E09" sampledSeconds="21637.01" traveltime="35.91" overlapTraveltime="36.72" density="11.64" laneDensity="2.91" occupancy="1.44" waitingTime="6325.00" timeLoss="9432.77" speed="7.71" speedRelative="0.55" departed="600" arrived="0" entered="0" left="600" laneChangedFrom="671" laneChangedTo="671"/>
        <edge id="E1" sampledSeconds="122212.94" traveltime="78.89" overlapTraveltime="79.89" density="71.39" laneDensity="17.85" occupancy="8.81" waitingTime="59771.09" timeLoss="92903.48" speed="3.27" speedRelative="0.24" departed="0" arrived="0" entered="1530" left="1529" laneChangedFrom="1550" laneChangedTo="1550" teleported="1"/>
        <edge id="E10" sampledSeconds="21108.41" traveltime="52.90" overlapTraveltime="53.74" density="11.35" laneDensity="2.84" occupancy="1.41" waitingTime="10572.00" timeLoss="12950.07" speed="5.27" speedRelative="0.38" departed="400" arrived="0" entered="0" left="400" laneChangedFrom="388" laneChangedTo="388"/>
        <edge id="E101" sampledSeconds="179138.85" traveltime="245.71" overlapTraveltime="248.03" density="104.65" laneDensity="26.16" occupancy="13.00" waitingTime="139803.00" timeLoss="165437.57" speed="1.05" speedRelative="0.08" departed="0" arrived="0" entered="731" left="729" laneChangedFrom="1207" laneChangedTo="1208" teleported="10"/>
        <edge id="E11" sampledSeconds="22084.64" traveltime="55.34" overlapTraveltime="56.22" density="11.88" laneDensity="2.97" occupancy="1.47" waitingTime="11497.00" timeLoss="13924.07" speed="5.03" speedRelative="0.36" departed="400" arrived="0" entered="0" left="400" laneChangedFrom="411" laneChangedTo="411"/>
        <edge id="E111" sampledSeconds="84965.38" traveltime="103.21" overlapTraveltime="105.03" density="49.63" laneDensity="12.41" occupancy="6.13" waitingTime="45117.00" timeLoss="69523.35" speed="2.49" speedRelative="0.18" departed="0" arrived="0" entered="809" left="809" laneChangedFrom="550" laneChangedTo="550"/>
        <edge id="E12" sampledSeconds="207984.09" traveltime="263.96" overlapTraveltime="264.76" density="111.88" laneDensity="27.97" occupancy="13.96" waitingTime="162739.00" timeLoss="191752.54" speed="1.07" speedRelative="0.08" departed="800" arrived="0" entered="0" left="800" laneChangedFrom="1836" laneChangedTo="1836"/>
        <edge id="E13" sampledSeconds="21206.88" traveltime="42.43" overlapTraveltime="43.31" density="12.39" laneDensity="3.10" occupancy="1.53" waitingTime="7631.00" timeLoss="11828.77" speed="6.03" speedRelative="0.43" departed="0" arrived="0" entered="490" left="476" laneChangedFrom="290" laneChangedTo="291"/>
        <edge id="E14" sampledSeconds="9642.54" traveltime="33.71" overlapTraveltime="34.96" density="5.63" laneDensity="1.41" occupancy="0.69" waitingTime="1877.00" timeLoss="4350.92" speed="7.47" speedRelative="0.54" departed="0" arrived="0" entered="276" left="266" laneChangedFrom="356" laneChangedTo="356"/>
        <edge id="E16" sampledSeconds="89678.48" traveltime="85.36" overlapTraveltime="87.16" density="52.39" laneDensity="13.10" occupancy="6.47" waitingTime="47279.00" timeLoss="70097.56" speed="2.99" speedRelative="0.22" departed="0" arrived="0" entered="1029" left="1029" laneChangedFrom="625" laneChangedTo="625"/>
        <edge id="E17" sampledSeconds="105448.75" traveltime="95.63" overlapTraveltime="96.92" density="61.60" laneDensity="15.40" occupancy="7.63" waitingTime="61204.69" timeLoss="84628.38" speed="2.69" speedRelative="0.19" departed="0" arrived="0" entered="1088" left="1088" laneChangedFrom="617" laneChangedTo="617"/>
        <edge id="E18" sampledSeconds="100888.78" traveltime="112.69" overlapTraveltime="113.57" density="58.93" laneDensity="14.73" occupancy="7.32" waitingTime="63223.00" timeLoss="83753.60" speed="2.30" speedRelative="0.17" departed="0" arrived="0" entered="889" left="879" laneChangedFrom="323" laneChangedTo="325"/>
        <edge id="E2" sampledSeconds="39296.25" traveltime="44.07" overlapTraveltime="45.06" density="22.96" laneDensity="5.74" occupancy="2.82" waitingTime="11756.00" timeLoss="22531.27" speed="5.79" speedRelative="0.42" departed="0" arrived="0" entered="872" left="872" laneChangedFrom="139" laneChangedTo="139"/>
        <edge id="E20" sampledSeconds="32331.01" traveltime="36.85" overlapTraveltime="37.99" density="18.89" laneDensity="4.72" occupancy="2.31" waitingTime="8568.00" timeLoss="16000.46" speed="6.87" speedRelative="0.49" departed="0" arrived="0" entered="851" left="851" laneChangedFrom="509" laneChangedTo="509"/>
        <edge id="E21" sampledSeconds="45720.46" traveltime="43.76" overlapTraveltime="44.82" density="26.71" laneDensity="6.68" occupancy="3.28" waitingTime="12821.00" timeLoss="26192.94" speed="5.82" speedRelative="0.42" departed="0" arrived="0" entered="1020" left="1020" laneChangedFrom="842" laneChangedTo="842"/>
        <edge id="E9" sampledSeconds="213458.81" traveltime="234.10" overlapTraveltime="239.87" density="124.69" laneDensity="31.17" occupancy="15.35" waitingTime="168159.44" timeLoss="196432.76" speed="1.09" speedRelative="0.08" departed="0" arrived="0" entered="890" left="889" laneChangedFrom="803" laneChangedTo="803" teleported="1"/>
    </interval>
</meandata>
