<?xml version="1.0" encoding="UTF-8"?>

<!-- generated on 2023-08-30 21:09:14 by Eclipse SUMO GUI Version 1.18.0
<configuration xmlns:xsi="http://www.w3.org/2001/XMLSchema-instance" xsi:noNamespaceSchemaLocation="http://sumo.dlr.de/xsd/sumoConfiguration.xsd">

    <input>
        <net-file value="C:\Users\ASUS\Desktop\第四章\4.3路网\example43.net.xml"/>
        <route-files value="C:\Users\ASUS\Desktop\第四章\4.3路网\od2trips_way2.rou.xml"/>
        <additional-files value="C:\Users\ASUS\Desktop\第四章\4.3路网\example43_taz_def.add.xml"/>
    </input>

    <output>
        <queue-output value="C:\Users\ASUS\Desktop\第四章\4.3路网\queue_data.xml"/>
        <edgedata-output value="C:\Users\ASUS\Desktop\第四章\4.3路网\edgedata_data.xml"/>
        <lanedata-output value="C:\Users\ASUS\Desktop\第四章\4.3路网\lanedata_data.xml"/>
    </output>

    <report>
        <error-log value="C:\Users\ASUS\Desktop\第四章\4.3路网\error_log.xml"/>
    </report>

</configuration>
-->

<meandata xmlns:xsi="http://www.w3.org/2001/XMLSchema-instance" xsi:noNamespaceSchemaLocation="http://sumo.dlr.de/xsd/meandata_file.xsd">
    <interval begin="0.00" end="6687.00" id="DEFAULT_LANEDATA">
        <edge id="-E01">
            <lane id="-E01_1" sampledSeconds="5079.12" traveltime="22.85" overlapTraveltime="23.25" density="2.73" laneDensity="2.73" occupancy="1.35" waitingTime="0.00" timeLoss="314.70" speed="12.17" speedRelative="0.88" departed="0" arrived="308" entered="141" left="0" laneChangedFrom="7" laneChangedTo="174"/>
            <lane id="-E01_2" sampledSeconds="9381.84" traveltime="21.79" overlapTraveltime="22.17" density="5.05" laneDensity="5.05" occupancy="2.48" waitingTime="0.00" timeLoss="720.95" speed="12.76" speedRelative="0.92" departed="0" arrived="532" entered="400" left="0" laneChangedFrom="185" laneChangedTo="317"/>
            <lane id="-E01_3" sampledSeconds="16898.49" traveltime="22.06" overlapTraveltime="22.44" density="9.09" laneDensity="9.09" occupancy="4.48" waitingTime="0.00" timeLoss="1632.14" speed="12.61" speedRelative="0.91" departed="0" arrived="560" entered="859" left="0" laneChangedFrom="310" laneChangedTo="11"/>
        </edge>
        <edge id="-E02">
            <lane id="-E02_0" sampledSeconds="663.08" traveltime="20.96" overlapTraveltime="21.33" density="0.36" laneDensity="0.36" occupancy="0.18" waitingTime="0.00" timeLoss="31.38" speed="13.27" speedRelative="0.96" departed="0" arrived="0" entered="32" left="0" laneChangedFrom="0" laneChangedTo="0"/>
            <lane id="-E02_1" sampledSeconds="7839.11" traveltime="22.27" overlapTraveltime="22.67" density="4.22" laneDensity="4.22" occupancy="2.07" waitingTime="0.00" timeLoss="587.93" speed="12.48" speedRelative="0.90" departed="0" arrived="326" entered="397" left="0" laneChangedFrom="96" laneChangedTo="25"/>
            <lane id="-E02_2" sampledSeconds="2611.93" traveltime="20.93" overlapTraveltime="21.31" density="1.41" laneDensity="1.41" occupancy="0.69" waitingTime="0.00" timeLoss="141.43" speed="13.28" speedRelative="0.96" departed="0" arrived="161" entered="67" left="0" laneChangedFrom="30" laneChangedTo="124"/>
            <lane id="-E02_3" sampledSeconds="2073.21" traveltime="20.81" overlapTraveltime="21.18" density="1.12" laneDensity="1.12" occupancy="0.55" waitingTime="0.00" timeLoss="122.01" speed="13.36" speedRelative="0.96" departed="0" arrived="83" entered="104" left="0" laneChangedFrom="27" laneChangedTo="6"/>
        </edge>
        <edge id="-E03">
            <lane id="-E03_1" sampledSeconds="18710.35" traveltime="22.59" overlapTraveltime="22.99" density="10.06" laneDensity="10.06" occupancy="4.94" waitingTime="0.00" timeLoss="1381.75" speed="12.31" speedRelative="0.89" departed="0" arrived="759" entered="948" left="0" laneChangedFrom="268" laneChangedTo="79"/>
            <lane id="-E03_2" sampledSeconds="7970.45" traveltime="20.62" overlapTraveltime="20.98" density="4.29" laneDensity="4.29" occupancy="2.11" waitingTime="0.00" timeLoss="445.91" speed="13.49" speedRelative="0.97" departed="0" arrived="430" entered="263" left="0" laneChangedFrom="123" laneChangedTo="290"/>
            <lane id="-E03_3" sampledSeconds="2119.99" traveltime="20.47" overlapTraveltime="20.83" density="1.14" laneDensity="1.14" occupancy="0.56" waitingTime="0.00" timeLoss="146.41" speed="13.59" speedRelative="0.98" departed="0" arrived="111" entered="89" left="0" laneChangedFrom="22" laneChangedTo="44"/>
        </edge>
        <edge id="-E04">
            <lane id="-E04_1" sampledSeconds="1361.56" traveltime="22.40" overlapTraveltime="22.81" density="0.73" laneDensity="0.73" occupancy="0.36" waitingTime="0.00" timeLoss="74.51" speed="12.41" speedRelative="0.89" departed="0" arrived="103" entered="40" left="0" laneChangedFrom="4" laneChangedTo="67"/>
            <lane id="-E04_2" sampledSeconds="2932.96" traveltime="21.59" overlapTraveltime="21.97" density="1.58" laneDensity="1.58" occupancy="0.78" waitingTime="0.00" timeLoss="178.28" speed="12.88" speedRelative="0.93" departed="0" arrived="180" entered="116" left="0" laneChangedFrom="68" laneChangedTo="132"/>
            <lane id="-E04_3" sampledSeconds="6679.25" traveltime="21.53" overlapTraveltime="21.91" density="3.59" laneDensity="3.59" occupancy="1.77" waitingTime="0.00" timeLoss="510.63" speed="12.92" speedRelative="0.93" departed="0" arrived="217" entered="344" left="0" laneChangedFrom="128" laneChangedTo="1"/>
        </edge>
        <edge id="-E05">
            <lane id="-E05_1" sampledSeconds="7004.68" traveltime="22.19" overlapTraveltime="22.59" density="3.77" laneDensity="3.77" occupancy="1.85" waitingTime="0.00" timeLoss="455.12" speed="12.53" speedRelative="0.90" departed="0" arrived="358" entered="305" left="0" laneChangedFrom="45" laneChangedTo="98"/>
            <lane id="-E05_2" sampledSeconds="5411.25" traveltime="21.46" overlapTraveltime="21.85" density="2.91" laneDensity="2.91" occupancy="1.43" waitingTime="0.00" timeLoss="306.86" speed="12.95" speedRelative="0.93" departed="0" arrived="368" entered="180" left="0" laneChangedFrom="104" laneChangedTo="292"/>
            <lane id="-E05_3" sampledSeconds="12091.56" traveltime="22.08" overlapTraveltime="22.46" density="6.50" laneDensity="6.50" occupancy="3.20" waitingTime="0.00" timeLoss="1057.56" speed="12.60" speedRelative="0.91" departed="0" arrived="374" entered="615" left="0" laneChangedFrom="247" laneChangedTo="6"/>
        </edge>
        <edge id="-E06">
            <lane id="-E06_1" sampledSeconds="15140.02" traveltime="22.15" overlapTraveltime="22.54" density="8.14" laneDensity="8.14" occupancy="3.99" waitingTime="0.00" timeLoss="1123.81" speed="12.55" speedRelative="0.90" departed="0" arrived="652" entered="780" left="0" laneChangedFrom="218" laneChangedTo="90"/>
            <lane id="-E06_2" sampledSeconds="6682.98" traveltime="20.45" overlapTraveltime="20.81" density="3.59" laneDensity="3.59" occupancy="1.77" waitingTime="0.00" timeLoss="352.67" speed="13.60" speedRelative="0.98" departed="0" arrived="353" entered="216" left="0" laneChangedFrom="115" laneChangedTo="252"/>
            <lane id="-E06_3" sampledSeconds="2196.18" traveltime="20.91" overlapTraveltime="21.27" density="1.18" laneDensity="1.18" occupancy="0.58" waitingTime="0.00" timeLoss="156.31" speed="13.31" speedRelative="0.96" departed="0" arrived="95" entered="104" left="0" laneChangedFrom="34" laneChangedTo="25"/>
        </edge>
        <edge id="-E07">
            <lane id="-E07_1" sampledSeconds="1321.03" traveltime="23.43" overlapTraveltime="23.85" density="0.71" laneDensity="0.71" occupancy="0.35" waitingTime="0.00" timeLoss="73.89" speed="11.87" speedRelative="0.85" departed="0" arrived="104" entered="26" left="0" laneChangedFrom="0" laneChangedTo="78"/>
            <lane id="-E07_2" sampledSeconds="3906.08" traveltime="21.84" overlapTraveltime="22.22" density="2.10" laneDensity="2.10" occupancy="1.03" waitingTime="0.00" timeLoss="279.85" speed="12.74" speedRelative="0.92" departed="0" arrived="224" entered="163" left="0" laneChangedFrom="84" laneChangedTo="145"/>
            <lane id="-E07_3" sampledSeconds="8117.87" traveltime="21.76" overlapTraveltime="22.14" density="4.37" laneDensity="4.37" occupancy="2.15" waitingTime="0.00" timeLoss="677.85" speed="12.78" speedRelative="0.92" departed="0" arrived="272" entered="411" left="0" laneChangedFrom="145" laneChangedTo="6"/>
        </edge>
        <edge id="-E08">
            <lane id="-E08_1" sampledSeconds="7101.23" traveltime="21.95" overlapTraveltime="22.34" density="3.82" laneDensity="3.82" occupancy="1.87" waitingTime="0.00" timeLoss="530.53" speed="12.67" speedRelative="0.91" departed="0" arrived="289" entered="388" left="0" laneChangedFrom="110" laneChangedTo="11"/>
            <lane id="-E08_2" sampledSeconds="2217.79" traveltime="20.41" overlapTraveltime="20.77" density="1.19" laneDensity="1.19" occupancy="0.59" waitingTime="0.00" timeLoss="110.69" speed="13.62" speedRelative="0.98" departed="0" arrived="172" entered="25" left="0" laneChangedFrom="15" laneChangedTo="162"/>
            <lane id="-E08_3" sampledSeconds="3774.13" traveltime="21.41" overlapTraveltime="21.78" density="2.03" laneDensity="2.03" occupancy="1.00" waitingTime="0.00" timeLoss="286.09" speed="12.99" speedRelative="0.94" departed="0" arrived="139" entered="187" left="0" laneChangedFrom="52" laneChangedTo="4"/>
        </edge>
        <edge id="-E09">
            <lane id="-E09_1" sampledSeconds="6984.83" traveltime="22.39" overlapTraveltime="22.79" density="3.76" laneDensity="3.76" occupancy="1.84" waitingTime="0.00" timeLoss="564.35" speed="12.42" speedRelative="0.89" departed="0" arrived="266" entered="399" left="0" laneChangedFrom="136" laneChangedTo="3"/>
            <lane id="-E09_2" sampledSeconds="2191.06" traveltime="20.45" overlapTraveltime="20.83" density="1.18" laneDensity="1.18" occupancy="0.58" waitingTime="0.00" timeLoss="115.27" speed="13.59" speedRelative="0.98" departed="0" arrived="180" entered="1" left="0" laneChangedFrom="10" laneChangedTo="189"/>
            <lane id="-E09_3" sampledSeconds="4213.03" traveltime="22.26" overlapTraveltime="22.65" density="2.27" laneDensity="2.27" occupancy="1.12" waitingTime="0.00" timeLoss="401.50" speed="12.50" speedRelative="0.90" departed="0" arrived="154" entered="200" left="0" laneChangedFrom="53" laneChangedTo="7"/>
        </edge>
        <edge id="-E1">
            <lane id="-E1_1" sampledSeconds="14807.53" traveltime="37.68" overlapTraveltime="38.62" density="8.65" laneDensity="8.65" occupancy="4.24" waitingTime="4022.00" timeLoss="7307.43" speed="6.76" speedRelative="0.49" departed="0" arrived="0" entered="271" left="472" laneChangedFrom="14" laneChangedTo="215"/>
            <lane id="-E1_2" sampledSeconds="9213.68" traveltime="36.48" overlapTraveltime="36.96" density="5.38" laneDensity="5.38" occupancy="2.65" waitingTime="2314.00" timeLoss="4362.27" speed="7.06" speedRelative="0.51" departed="0" arrived="0" entered="82" left="428" laneChangedFrom="229" laneChangedTo="575"/>
            <lane id="-E1_3" sampledSeconds="21065.46" traveltime="33.19" overlapTraveltime="34.18" density="12.31" laneDensity="12.31" occupancy="6.03" waitingTime="5554.00" timeLoss="9610.66" speed="7.64" speedRelative="0.55" departed="0" arrived="0" entered="896" left="349" laneChangedFrom="561" laneChangedTo="14"/>
        </edge>
        <edge id="-E10">
            <lane id="-E10_1" sampledSeconds="3989.40" traveltime="22.11" overlapTraveltime="22.50" density="2.15" laneDensity="2.15" occupancy="1.05" waitingTime="0.00" timeLoss="289.82" speed="12.58" speedRelative="0.91" departed="0" arrived="174" entered="200" left="0" laneChangedFrom="37" laneChangedTo="11"/>
            <lane id="-E10_2" sampledSeconds="1421.84" traveltime="21.45" overlapTraveltime="21.84" density="0.76" laneDensity="0.76" occupancy="0.38" waitingTime="0.00" timeLoss="78.56" speed="12.96" speedRelative="0.93" departed="0" arrived="160" entered="0" left="0" laneChangedFrom="11" laneChangedTo="171"/>
            <lane id="-E10_3" sampledSeconds="8013.60" traveltime="22.17" overlapTraveltime="22.55" density="4.31" laneDensity="4.31" occupancy="2.12" waitingTime="0.00" timeLoss="759.28" speed="12.55" speedRelative="0.90" departed="0" arrived="266" entered="400" left="0" laneChangedFrom="134" laneChangedTo="0"/>
        </edge>
        <edge id="-E101">
            <lane id="-E101_1" sampledSeconds="543.32" traveltime="42.38" overlapTraveltime="43.28" density="0.32" laneDensity="0.32" occupancy="0.15" waitingTime="224.00" timeLoss="295.78" speed="6.03" speedRelative="0.43" departed="0" arrived="0" entered="110" left="8" laneChangedFrom="104" laneChangedTo="2"/>
            <lane id="-E101_2" sampledSeconds="2655.40" traveltime="37.63" overlapTraveltime="38.39" density="1.55" laneDensity="1.55" occupancy="0.76" waitingTime="1090.00" timeLoss="1374.54" speed="6.80" speedRelative="0.49" departed="0" arrived="0" entered="156" left="5" laneChangedFrom="260" laneChangedTo="109"/>
            <lane id="-E101_3" sampledSeconds="69123.29" traveltime="94.61" overlapTraveltime="95.04" density="40.38" laneDensity="40.38" occupancy="20.08" waitingTime="42317.77" timeLoss="55244.89" speed="2.75" speedRelative="0.20" departed="0" arrived="0" entered="543" left="796" laneChangedFrom="5" laneChangedTo="258"/>
        </edge>
        <edge id="-E11">
            <lane id="-E11_1" sampledSeconds="3606.35" traveltime="22.25" overlapTraveltime="22.64" density="1.94" laneDensity="1.94" occupancy="0.95" waitingTime="0.00" timeLoss="277.57" speed="12.50" speedRelative="0.90" departed="0" arrived="143" entered="195" left="0" laneChangedFrom="58" laneChangedTo="6"/>
            <lane id="-E11_2" sampledSeconds="1279.17" traveltime="21.00" overlapTraveltime="21.39" density="0.69" laneDensity="0.69" occupancy="0.34" waitingTime="0.00" timeLoss="67.62" speed="13.23" speedRelative="0.95" departed="0" arrived="129" entered="5" left="0" laneChangedFrom="10" laneChangedTo="134"/>
            <lane id="-E11_3" sampledSeconds="4018.07" traveltime="22.00" overlapTraveltime="22.38" density="2.16" laneDensity="2.16" occupancy="1.06" waitingTime="0.00" timeLoss="327.29" speed="12.64" speedRelative="0.91" departed="0" arrived="128" entered="200" left="0" laneChangedFrom="76" laneChangedTo="4"/>
        </edge>
        <edge id="-E111">
            <lane id="-E111_1" sampledSeconds="27230.67" traveltime="70.83" overlapTraveltime="71.76" density="15.91" laneDensity="15.91" occupancy="7.88" waitingTime="15738.00" timeLoss="19918.09" speed="3.64" speedRelative="0.26" departed="0" arrived="0" entered="310" left="399" laneChangedFrom="0" laneChangedTo="89"/>
            <lane id="-E111_2" sampledSeconds="606.66" traveltime="23.96" overlapTraveltime="24.43" density="0.35" laneDensity="0.35" occupancy="0.17" waitingTime="70.00" timeLoss="127.96" speed="10.68" speedRelative="0.77" departed="0" arrived="0" entered="108" left="0" laneChangedFrom="135" laneChangedTo="27"/>
            <lane id="-E111_3" sampledSeconds="16864.26" traveltime="68.02" overlapTraveltime="68.64" density="9.85" laneDensity="9.85" occupancy="4.89" waitingTime="10326.00" timeLoss="12222.35" speed="3.80" speedRelative="0.27" departed="0" arrived="0" entered="232" left="251" laneChangedFrom="27" laneChangedTo="46"/>
        </edge>
        <edge id="-E12">
            <lane id="-E12_1" sampledSeconds="7288.43" traveltime="22.36" overlapTraveltime="22.75" density="3.92" laneDensity="3.92" occupancy="1.92" waitingTime="0.00" timeLoss="566.60" speed="12.44" speedRelative="0.90" departed="0" arrived="285" entered="395" left="0" laneChangedFrom="112" laneChangedTo="2"/>
            <lane id="-E12_2" sampledSeconds="1528.89" traveltime="19.86" overlapTraveltime="20.22" density="0.82" laneDensity="0.82" occupancy="0.41" waitingTime="0.00" timeLoss="73.85" speed="14.00" speedRelative="1.01" departed="0" arrived="107" entered="5" left="0" laneChangedFrom="10" laneChangedTo="112"/>
            <lane id="-E12_3" sampledSeconds="50.83" traveltime="19.15" overlapTraveltime="19.48" density="0.03" laneDensity="0.03" occupancy="0.01" waitingTime="0.00" timeLoss="2.41" speed="14.52" speedRelative="1.05" departed="0" arrived="8" entered="0" left="0" laneChangedFrom="0" laneChangedTo="8"/>
        </edge>
        <edge id="-E13">
            <lane id="-E13_1" sampledSeconds="20920.82" traveltime="222.92" overlapTraveltime="240.83" density="12.22" laneDensity="12.22" occupancy="5.82" waitingTime="17275.00" timeLoss="19253.63" speed="1.08" speedRelative="0.08" departed="0" arrived="0" entered="93" left="102" laneChangedFrom="49" laneChangedTo="58"/>
            <lane id="-E13_2" sampledSeconds="19768.19" traveltime="438.90" overlapTraveltime="471.14" density="11.55" laneDensity="11.55" occupancy="5.56" waitingTime="16956.00" timeLoss="18978.56" speed="0.55" speedRelative="0.04" departed="0" arrived="0" entered="12" left="71" laneChangedFrom="81" laneChangedTo="140" teleported="1"/>
            <lane id="-E13_3" sampledSeconds="21057.04" traveltime="227.13" overlapTraveltime="244.74" density="12.30" laneDensity="12.30" occupancy="6.01" waitingTime="17765.00" timeLoss="19418.74" speed="1.07" speedRelative="0.08" departed="0" arrived="0" entered="110" left="42" laneChangedFrom="91" laneChangedTo="23" teleported="2"/>
        </edge>
        <edge id="-E14">
            <lane id="-E14_1" sampledSeconds="3264.37" traveltime="35.91" overlapTraveltime="36.98" density="1.91" laneDensity="1.91" occupancy="0.92" waitingTime="719.00" timeLoss="1561.90" speed="7.06" speedRelative="0.51" departed="0" arrived="0" entered="187" left="120" laneChangedFrom="166" laneChangedTo="99"/>
            <lane id="-E14_2" sampledSeconds="1116.01" traveltime="22.30" overlapTraveltime="22.85" density="0.65" laneDensity="0.65" occupancy="0.32" waitingTime="44.00" timeLoss="192.52" speed="11.42" speedRelative="0.82" departed="0" arrived="0" entered="18" left="14" laneChangedFrom="277" laneChangedTo="273"/>
            <lane id="-E14_3" sampledSeconds="16247.92" traveltime="43.03" overlapTraveltime="43.81" density="9.49" laneDensity="9.49" occupancy="4.68" waitingTime="5665.00" timeLoss="9148.70" speed="5.96" speedRelative="0.43" departed="0" arrived="0" entered="303" left="374" laneChangedFrom="107" laneChangedTo="178"/>
        </edge>
        <edge id="-E16">
            <lane id="-E16_1" sampledSeconds="36910.94" traveltime="69.68" overlapTraveltime="70.80" density="21.56" laneDensity="21.56" occupancy="10.67" waitingTime="18402.00" timeLoss="26973.10" speed="3.69" speedRelative="0.27" departed="0" arrived="0" entered="555" left="450" laneChangedFrom="157" laneChangedTo="52"/>
            <lane id="-E16_2" sampledSeconds="16521.06" traveltime="170.97" overlapTraveltime="173.67" density="9.65" laneDensity="9.65" occupancy="4.75" waitingTime="9744.00" timeLoss="14683.52" speed="1.50" speedRelative="0.11" departed="0" arrived="0" entered="125" left="156" laneChangedFrom="218" laneChangedTo="249"/>
            <lane id="-E16_3" sampledSeconds="33890.40" traveltime="116.74" overlapTraveltime="118.69" density="19.80" laneDensity="19.80" occupancy="9.80" waitingTime="18280.00" timeLoss="28555.35" speed="2.20" speedRelative="0.16" departed="0" arrived="0" entered="222" left="296" laneChangedFrom="92" laneChangedTo="166"/>
        </edge>
        <edge id="-E17">
            <lane id="-E17_1" sampledSeconds="10667.96" traveltime="125.59" overlapTraveltime="125.25" density="6.23" laneDensity="6.23" occupancy="3.06" waitingTime="6971.00" timeLoss="9040.73" speed="2.08" speedRelative="0.15" departed="0" arrived="0" entered="184" left="217" laneChangedFrom="250" laneChangedTo="283"/>
            <lane id="-E17_2" sampledSeconds="16409.11" traveltime="89.87" overlapTraveltime="92.09" density="9.59" laneDensity="9.59" occupancy="4.74" waitingTime="8306.00" timeLoss="12996.04" speed="2.83" speedRelative="0.20" departed="0" arrived="0" entered="41" left="188" laneChangedFrom="468" laneChangedTo="615"/>
            <lane id="-E17_3" sampledSeconds="59684.31" traveltime="147.97" overlapTraveltime="150.93" density="34.86" laneDensity="34.86" occupancy="17.28" waitingTime="30399.00" timeLoss="52180.78" speed="1.73" speedRelative="0.12" departed="0" arrived="0" entered="434" left="254" laneChangedFrom="365" laneChangedTo="185"/>
        </edge>
        <edge id="-E18">
            <lane id="-E18_0" sampledSeconds="0.00" departed="0" arrived="0" entered="1" left="0" laneChangedFrom="0" laneChangedTo="0"/>
            <lane id="-E18_1" sampledSeconds="23198.93" traveltime="869.52" overlapTraveltime="912.80" density="13.55" laneDensity="13.55" occupancy="6.36" waitingTime="21230.42" timeLoss="22711.85" speed="0.29" speedRelative="0.02" departed="0" arrived="0" entered="65" left="72" laneChangedFrom="122" laneChangedTo="129"/>
            <lane id="-E18_2" sampledSeconds="26933.34" traveltime="340.33" overlapTraveltime="362.01" density="15.73" laneDensity="15.73" occupancy="7.49" waitingTime="23086.00" timeLoss="25505.13" speed="0.72" speedRelative="0.05" departed="0" arrived="0" entered="19" left="67" laneChangedFrom="185" laneChangedTo="233"/>
            <lane id="-E18_3" sampledSeconds="96473.81" traveltime="654.68" overlapTraveltime="670.11" density="56.36" laneDensity="56.36" occupancy="27.83" waitingTime="80267.00" timeLoss="93780.28" speed="0.39" speedRelative="0.03" departed="0" arrived="0" entered="160" left="105" laneChangedFrom="111" laneChangedTo="56" teleported="4"/>
        </edge>
        <edge id="-E2">
            <lane id="-E2_1" sampledSeconds="9123.63" traveltime="44.47" overlapTraveltime="45.57" density="5.33" laneDensity="5.33" occupancy="2.61" waitingTime="3328.00" timeLoss="5263.34" speed="5.73" speedRelative="0.41" departed="0" arrived="0" entered="188" left="225" laneChangedFrom="4" laneChangedTo="41"/>
            <lane id="-E2_2" sampledSeconds="3864.27" traveltime="44.40" overlapTraveltime="46.43" density="2.26" laneDensity="2.26" occupancy="1.10" waitingTime="1298.00" timeLoss="2272.77" speed="5.62" speedRelative="0.40" departed="0" arrived="0" entered="7" left="112" laneChangedFrom="65" laneChangedTo="170"/>
            <lane id="-E2_3" sampledSeconds="39162.93" traveltime="168.70" overlapTraveltime="170.66" density="22.88" laneDensity="22.88" occupancy="11.38" waitingTime="31629.00" timeLoss="34862.48" speed="1.53" speedRelative="0.11" departed="0" arrived="0" entered="318" left="176" laneChangedFrom="166" laneChangedTo="24" teleported="2"/>
        </edge>
        <edge id="-E20">
            <lane id="-E20_1" sampledSeconds="10362.76" traveltime="27.52" overlapTraveltime="28.39" density="6.05" laneDensity="6.05" occupancy="2.94" waitingTime="1481.00" timeLoss="3227.98" speed="9.19" speedRelative="0.66" departed="0" arrived="0" entered="549" left="371" laneChangedFrom="317" laneChangedTo="139"/>
            <lane id="-E20_2" sampledSeconds="7069.03" traveltime="31.50" overlapTraveltime="32.64" density="4.13" laneDensity="4.13" occupancy="2.01" waitingTime="1233.00" timeLoss="3008.77" speed="8.00" speedRelative="0.58" departed="0" arrived="0" entered="148" left="281" laneChangedFrom="385" laneChangedTo="518"/>
            <lane id="-E20_3" sampledSeconds="19095.38" traveltime="42.70" overlapTraveltime="44.89" density="11.15" laneDensity="11.15" occupancy="5.42" waitingTime="4051.00" timeLoss="11091.49" speed="5.81" speedRelative="0.42" departed="0" arrived="0" entered="310" left="355" laneChangedFrom="201" laneChangedTo="246"/>
        </edge>
        <edge id="-E21">
            <lane id="-E21_0" sampledSeconds="194.71" traveltime="28.26" overlapTraveltime="28.90" density="0.11" laneDensity="0.11" occupancy="0.06" waitingTime="24.00" timeLoss="60.96" speed="9.03" speedRelative="0.65" departed="0" arrived="0" entered="7" left="0" laneChangedFrom="0" laneChangedTo="0"/>
            <lane id="-E21_1" sampledSeconds="7443.51" traveltime="36.71" overlapTraveltime="38.04" density="4.35" laneDensity="4.35" occupancy="2.11" waitingTime="1927.00" timeLoss="3638.47" speed="6.86" speedRelative="0.49" departed="0" arrived="0" entered="273" left="276" laneChangedFrom="231" laneChangedTo="234"/>
            <lane id="-E21_2" sampledSeconds="6146.51" traveltime="31.68" overlapTraveltime="33.10" density="3.59" laneDensity="3.59" occupancy="1.75" waitingTime="1062.00" timeLoss="2582.49" speed="7.88" speedRelative="0.57" departed="0" arrived="0" entered="23" left="188" laneChangedFrom="421" laneChangedTo="586"/>
            <lane id="-E21_3" sampledSeconds="36976.45" traveltime="54.86" overlapTraveltime="56.14" density="21.60" laneDensity="21.60" occupancy="10.64" waitingTime="11279.00" timeLoss="24428.99" speed="4.65" speedRelative="0.33" departed="0" arrived="0" entered="744" left="576" laneChangedFrom="355" laneChangedTo="187"/>
        </edge>
        <edge id="-E9">
            <lane id="-E9_0" sampledSeconds="6208.43" traveltime="144.76" overlapTraveltime="145.98" density="3.63" laneDensity="3.63" occupancy="1.81" waitingTime="4272.00" timeLoss="5402.89" speed="1.79" speedRelative="0.13" departed="0" arrived="0" entered="44" left="0" laneChangedFrom="0" laneChangedTo="0"/>
            <lane id="-E9_1" sampledSeconds="459.19" traveltime="30.11" overlapTraveltime="30.87" density="0.27" laneDensity="0.27" occupancy="0.13" waitingTime="129.00" timeLoss="186.85" speed="8.45" speedRelative="0.61" departed="0" arrived="0" entered="26" left="13" laneChangedFrom="22" laneChangedTo="9"/>
            <lane id="-E9_2" sampledSeconds="2393.81" traveltime="55.77" overlapTraveltime="56.85" density="1.40" laneDensity="1.40" occupancy="0.69" waitingTime="1292.00" timeLoss="1588.93" speed="4.59" speedRelative="0.33" departed="0" arrived="0" entered="62" left="3" laneChangedFrom="119" laneChangedTo="60"/>
            <lane id="-E9_3" sampledSeconds="86843.90" traveltime="183.99" overlapTraveltime="184.77" density="50.73" laneDensity="50.73" occupancy="25.23" waitingTime="59122.31" timeLoss="77849.26" speed="1.41" speedRelative="0.10" departed="0" arrived="0" entered="439" left="511" laneChangedFrom="38" laneChangedTo="110"/>
        </edge>
        <edge id="E01">
            <lane id="E01_1" sampledSeconds="172820.44" traveltime="333.94" overlapTraveltime="330.95" density="92.96" laneDensity="92.96" occupancy="46.36" waitingTime="118678.00" timeLoss="161733.46" speed="0.86" speedRelative="0.06" departed="223" arrived="0" entered="0" left="936" laneChangedFrom="92" laneChangedTo="805" teleported="1"/>
            <lane id="E01_2" sampledSeconds="85114.65" traveltime="149.95" overlapTraveltime="151.35" density="45.79" laneDensity="45.79" occupancy="22.85" waitingTime="61184.00" timeLoss="73543.34" speed="1.87" speedRelative="0.13" departed="339" arrived="0" entered="0" left="393" laneChangedFrom="1659" laneChangedTo="1713" teleported="1"/>
            <lane id="E01_3" sampledSeconds="60261.66" traveltime="122.61" overlapTraveltime="124.01" density="32.42" laneDensity="32.42" occupancy="16.19" waitingTime="41265.00" timeLoss="50283.46" speed="2.28" speedRelative="0.16" departed="1038" arrived="0" entered="0" left="271" laneChangedFrom="1621" laneChangedTo="854"/>
        </edge>
        <edge id="E02">
            <lane id="E02_1" sampledSeconds="105754.48" traveltime="186.08" overlapTraveltime="189.09" density="56.89" laneDensity="56.89" occupancy="28.16" waitingTime="77481.00" timeLoss="94003.14" speed="1.50" speedRelative="0.11" departed="549" arrived="0" entered="0" left="538" laneChangedFrom="519" laneChangedTo="508" teleported="15"/>
            <lane id="E02_2" sampledSeconds="96431.64" traveltime="317.91" overlapTraveltime="322.77" density="51.87" laneDensity="51.87" occupancy="25.71" waitingTime="83088.00" timeLoss="90280.76" speed="0.88" speedRelative="0.06" departed="449" arrived="0" entered="0" left="268" laneChangedFrom="901" laneChangedTo="720" teleported="6"/>
            <lane id="E02_3" sampledSeconds="157022.45" traveltime="504.99" overlapTraveltime="507.96" density="84.47" laneDensity="84.47" occupancy="41.97" waitingTime="131544.88" timeLoss="150635.28" speed="0.56" speedRelative="0.04" departed="202" arrived="0" entered="0" left="394" laneChangedFrom="201" laneChangedTo="393" teleported="1"/>
        </edge>
        <edge id="E03">
            <lane id="E03_1" sampledSeconds="10269.81" traveltime="42.84" overlapTraveltime="44.66" density="5.52" laneDensity="5.52" occupancy="2.71" waitingTime="3241.00" timeLoss="5432.49" speed="6.34" speedRelative="0.46" departed="335" arrived="0" entered="0" left="263" laneChangedFrom="225" laneChangedTo="153"/>
            <lane id="E03_2" sampledSeconds="8866.51" traveltime="41.24" overlapTraveltime="42.82" density="4.77" laneDensity="4.77" occupancy="2.34" waitingTime="2639.29" timeLoss="4611.31" speed="6.61" speedRelative="0.48" departed="311" arrived="0" entered="0" left="205" laneChangedFrom="469" laneChangedTo="363"/>
            <lane id="E03_3" sampledSeconds="32865.75" traveltime="92.66" overlapTraveltime="94.30" density="17.68" laneDensity="17.68" occupancy="8.77" waitingTime="19260.00" timeLoss="25746.85" speed="3.00" speedRelative="0.22" departed="154" arrived="0" entered="0" left="332" laneChangedFrom="138" laneChangedTo="316" teleported="1"/>
        </edge>
        <edge id="E04">
            <lane id="E04_1" sampledSeconds="8048.18" traveltime="65.55" overlapTraveltime="66.50" density="4.33" laneDensity="4.33" occupancy="2.14" waitingTime="4597.00" timeLoss="5500.63" speed="4.26" speedRelative="0.31" departed="47" arrived="0" entered="0" left="158" laneChangedFrom="51" laneChangedTo="162"/>
            <lane id="E04_2" sampledSeconds="1891.65" traveltime="31.14" overlapTraveltime="31.89" density="1.02" laneDensity="1.02" occupancy="0.51" waitingTime="496.00" timeLoss="652.26" speed="8.87" speedRelative="0.64" departed="109" arrived="0" entered="0" left="23" laneChangedFrom="172" laneChangedTo="86"/>