<?xml version="1.0" encoding="UTF-8"?>

<!-- generated on 2025-06-23 14:18:21 by Eclipse SUMO GUI Version 1.22.0
<sumoConfiguration xmlns:xsi="http://www.w3.org/2001/XMLSchema-instance" xsi:noNamespaceSchemaLocation="http://sumo.dlr.de/xsd/sumoConfiguration.xsd">

    <input>
        <net-file value="E:\首体南路现状仿真SUMO\3.4晚高峰\4.net.xml"/>
        <route-files value="E:\首体南路现状仿真SUMO\3.4晚高峰\v_vehs.rou.xml,E:\首体南路现状仿真SUMO\3.4晚高峰\pedestrian.rou.xml,E:\首体南路现状仿真SUMO\3.4晚高峰\bus.rou.xml"/>
        <additional-files value="E:\首体南路现状仿真SUMO\3.4晚高峰\det_e3.add.xml,E:\首体南路现状仿真SUMO\3.4晚高峰\det_e2.add.xml,E:\首体南路现状仿真SUMO\3.4晚高峰\busstop_def.add.xml"/>
    </input>

    <output>
        <write-license value="false"/>
        <output-prefix value="OUTPUT-"/>
        <precision value="2"/>
        <human-readable-time value="false"/>
        <emission-output value="E:\首体南路现状仿真SUMO\3.4晚高峰\output/data_emission.xml"/>
        <emission-output.precision value="2"/>
        <queue-output value="E:\首体南路现状仿真SUMO\3.4晚高峰\output/data_Queue.xml"/>
        <queue-output.period value="300"/>
        <summary-output value="E:\首体南路现状仿真SUMO\3.4晚高峰\output/data_summary.xml"/>
        <summary-output.period value="300"/>
        <person-summary-output value="E:\首体南路现状仿真SUMO\3.4晚高峰\output/data_person_summary.xml"/>
        <personinfo-output value="E:\首体南路现状仿真SUMO\3.4晚高峰\output/data_personinfo.xml"/>
        <collision-output value="E:\首体南路现状仿真SUMO\3.4晚高峰\output/data_collision.xml"/>
        <edgedata-output value="E:\首体南路现状仿真SUMO\3.4晚高峰\output/data_edges.xml"/>
        <lanedata-output value="E:\首体南路现状仿真SUMO\3.4晚高峰\output/data_lanes.xml"/>
        <statistic-output value="E:\首体南路现状仿真SUMO\3.4晚高峰\output/data_statistic.xml"/>
    </output>

    <time>
        <begin value="0"/>
        <end value="3600"/>
        <step-length value="1"/>
    </time>

    <processing>
        <no-internal-links value="false"/>
        <ignore-route-errors value="true"/>
        <collision.action value="teleport"/>
        <intermodal-collision.action value="warn"/>
        <collision.stoptime value="0"/>
        <intermodal-collision.stoptime value="0"/>
        <collision.check-junctions value="false"/>
        <max-num-vehicles value="-1"/>
        <max-num-teleports value="-1"/>
        <time-to-teleport value="300"/>
        <time-to-teleport.remove value="false"/>
        <waiting-time-memory value="100"/>
        <max-depart-delay value="-1"/>
        <random-depart-offset value="0"/>
        <lanechange.duration value="0"/>
        <lanechange.overtake-right value="false"/>
        <tls.all-off value="false"/>
        <tls.yellow.min-decel value="3"/>
    </processing>

    <routing>
        <routing-algorithm value="dijkstra"/>
    </routing>

    <report>
        <verbose value="true"/>
        <no-warnings value="true"/>
        <log value="E:\首体南路现状仿真SUMO\3.4晚高峰\output/data_log.xml"/>
        <no-step-log value="true"/>
        <step-log.period value="300"/>
    </report>

    <emissions>
        <device.emissions.period value="300"/>
    </emissions>

    <mesoscopic>
        <mesosim value="false"/>
    </mesoscopic>

    <random_number>
        <random value="false"/>
        <seed value="23423"/>
    </random_number>

    <gui_only>
        <gui-settings-file value="E:\首体南路现状仿真SUMO\3.4晚高峰\viewsettings.xml"/>
        <start value="false"/>
        <demo value="false"/>
        <window-size value="800,600"/>
        <window-pos value="100,100"/>
    </gui_only>

</sumoConfiguration>
-->

<emission-export xmlns:xsi="http://www.w3.org/2001/XMLSchema-instance" xsi:noNamespaceSchemaLocation="http://sumo.dlr.de/xsd/emission_file.xsd">
    <timestep time="0.00">
        <vehicle id="E2W_693.0" eclass="HBEFA3/Bus" CO2="5286.11" CO="20.17" HC="4.85" NOx="60.75" PMx="2.01" fuel="1671.11" electricity="0.00" noise="67.11" route="693_2" type="BUS_A" waiting="0.00" lane="E3_2" pos="12.10" speed="0.00" angle="270.00" x="289.63" y="383.75"/>
        <vehicle id="N2S_92.0" eclass="HBEFA3/Bus" CO2="5286.11" CO="20.17" HC="4.85" NOx="60.75" PMx="2.01" fuel="1671.11" electricity="0.00" noise="67.11" route="92_1" type="BUS_B" waiting="0.00" lane="E10_2" pos="12.10" speed="0.00" angle="180.05" x="-20.81" y="663.75"/>
        <vehicle id="chegongzhuangxilu_east_T2.0" eclass="HBEFA3/PC_G_EU4" CO2="2624.72" CO="164.78" HC="0.81" NOx="1.20" PMx="0.07" fuel="837.22" electricity="0.00" noise="55.94" route="!chegongzhuangxilu_east_T2.0" type="vt_car" waiting="0.00" lane="E3_4" pos="5.10" speed="0.00" angle="270.00" x="296.63" y="374.25"/>
        <vehicle id="chegongzhuangxilu_west_T2.0" eclass="HBEFA3/PC_G_EU4" CO2="2624.72" CO="164.78" HC="0.81" NOx="1.20" PMx="0.07" fuel="837.22" electricity="0.00" noise="55.94" route="!chegongzhuangxilu_west_T2.0" type="vt_car" waiting="0.00" lane="E8_3" pos="5.10" speed="0.00" angle="90.00" x="-297.30" y="355.60"/>
        <vehicle id="fuchenglu_east_T2.0" eclass="HBEFA3/PC_G_EU4" CO2="2624.72" CO="164.78" HC="0.81" NOx="1.20" PMx="0.07" fuel="837.22" electricity="0.00" noise="55.94" route="!fuchenglu_east_T2.0" type="vt_car" waiting="0.00" lane="E33_3" pos="5.10" speed="0.00" angle="274.18" x="301.27" y="-638.47"/>
        <vehicle id="fuchenglu_west_T2.0" eclass="HBEFA3/PC_G_EU4" CO2="2624.72" CO="164.78" HC="0.81" NOx="1.20" PMx="0.07" fuel="837.22" electricity="0.00" noise="55.94" route="!fuchenglu_west_T2.0" type="vt_car" waiting="0.00" lane="E37_2" pos="5.10" speed="0.00" angle="94.20" x="-301.10" y="-626.57"/>
        <vehicle id="shoutinanlu_north_T2.0" eclass="HBEFA3/PC_G_EU4" CO2="2624.72" CO="164.78" HC="0.81" NOx="1.20" PMx="0.07" fuel="837.22" electricity="0.00" noise="55.94" route="!shoutinanlu_north_T2.0" type="vt_car" waiting="0.00" lane="E10_5" pos="5.10" speed="0.00" angle="180.05" x="-9.30" y="670.74"/>
        <vehicle id="zengguanglu_east_T2.0" eclass="HBEFA3/PC_G_EU4" CO2="2624.72" CO="164.78" HC="0.81" NOx="1.20" PMx="0.07" fuel="837.22" electricity="0.00" noise="55.94" route="!zengguanglu_east_T2.0" type="vt_car" waiting="0.00" lane="E19_2" pos="5.10" speed="0.00" angle="269.94" x="297.68" y="-106.02"/>
        <vehicle id="zengguanglu_west_T2.0" eclass="HBEFA3/PC_G_EU4" CO2="2624.72" CO="164.78" HC="0.81" NOx="1.20" PMx="0.07" fuel="837.22" electricity="0.00" noise="55.94" route="!zengguanglu_west_T2.0" type="vt_car" waiting="0.00" lane="E23_2" pos="5.10" speed="0.00" angle="90.00" x="-296.74" y="-110.13"/>
    </timestep>
    <timestep time="300.00">
        <vehicle id="N2S_61.0" eclass="HBEFA3/Bus" CO2="5286.11" CO="20.17" HC="4.85" NOx="60.75" PMx="2.01" fuel="1671.11" electricity="0.00" noise="67.11" route="61_1" type="BUS_B" waiting="73.00" lane="E29_3" pos="374.41" speed="0.00" angle="180.00" x="-14.01" y="-497.83"/>
        <vehicle id="S2N_61.0" eclass="HBEFA3/Bus" CO2="5286.11" CO="20.17" HC="4.85" NOx="60.75" PMx="2.01" fuel="1671.11" electricity="0.00" noise="67.11" route="61_2" type="BUS_A" waiting="70.00" lane="E14_7" pos="23.18" speed="0.00" angle="359.88" x="1.58" y="317.49"/>
        <vehicle id="S2N_92.0" eclass="HBEFA3/Bus" CO2="5286.11" CO="20.17" HC="4.85" NOx="60.75" PMx="2.01" fuel="1671.11" electricity="0.00" noise="67.11" route="92_2" type="BUS_A" waiting="270.00" lane="E37_2" pos="183.25" speed="0.00" angle="94.20" x="-123.44" y="-639.61"/>
        <vehicle id="W2E_73.0" eclass="HBEFA3/Bus" CO2="5286.11" CO="20.17" HC="4.85" NOx="60.75" PMx="2.01" fuel="1671.11" electricity="0.00" noise="67.11" route="73_1" type="BUS_B" waiting="273.00" lane="E37_2" pos="115.00" speed="0.00" angle="94.20" x="-191.50" y="-634.62"/>
        <vehicle id="chegongzhuangxilu_east_T2.16" eclass="HBEFA3/PC_G_EU4" CO2="2624.72" CO="164.78" HC="0.81" NOx="1.20" PMx="0.07" fuel="837.22" electricity="0.00" noise="55.94" route="!chegongzhuangxilu_east_T2.16" type="vt_car" waiting="122.00" lane="E5_4" pos="66.80" speed="0.00" angle="269.48" x="32.96" y="373.90"/>
        <vehicle id="chegongzhuangxilu_east_T2.17" eclass="HBEFA3/PC_G_EU4" CO2="0.00" CO="0.00" HC="0.00" NOx="0.00" PMx="0.00" fuel="0.00" electricity="0.00" noise="62.67" route="!chegongzhuangxilu_east_T2.17" type="vt_car" waiting="0.00" lane="E35_4" pos="145.48" speed="13.51" angle="274.21" x="-175.77" y="-607.23"/>
        <vehicle id="chegongzhuangxilu_east_T2.18" eclass="HBEFA3/PC_G_EU4" CO2="2624.72" CO="164.78" HC="0.81" NOx="1.20" PMx="0.07" fuel="837.22" electricity="0.00" noise="55.94" route="!chegongzhuangxilu_east_T2.18" type="vt_car" waiting="102.00" lane="E5_5" pos="66.80" speed="0.00" angle="269.48" x="32.95" y="370.90"/>
        <vehicle id="chegongzhuangxilu_east_T2.20" eclass="HBEFA3/PC_G_EU4" CO2="2624.72" CO="164.78" HC="0.81" NOx="1.20" PMx="0.07" fuel="837.22" electricity="0.00" noise="55.94" route="!chegongzhuangxilu_east_T2.20" type="vt_car" waiting="81.00" lane="E5_6" pos="66.80" speed="0.00" angle="269.48" x="32.93" y="367.90"/>
        <vehicle id="chegongzhuangxilu_east_T2.21" eclass="HBEFA3/PC_G_EU4" CO2="2624.72" CO="164.78" HC="0.81" NOx="1.20" PMx="0.07" fuel="837.22" electricity="0.00" noise="55.94" route="!chegongzhuangxilu_east_T2.21" type="vt_car" waiting="76.00" lane="E5_5" pos="59.30" speed="0.00" angle="269.48" x="40.46" y="370.97"/>
        <vehicle id="chegongzhuangxilu_east_T2.22" eclass="HBEFA3/PC_G_EU4" CO2="2624.72" CO="164.78" HC="0.81" NOx="1.20" PMx="0.07" fuel="837.22" electricity="0.00" noise="55.94" route="!chegongzhuangxilu_east_T2.22" type="vt_car" waiting="65.00" lane="E5_7" pos="66.80" speed="0.00" angle="269.48" x="32.92" y="364.90"/>
        <vehicle id="chegongzhuangxilu_east_T2.23" eclass="HBEFA3/PC_G_EU4" CO2="2624.72" CO="164.78" HC="0.81" NOx="1.20" PMx="0.07" fuel="837.22" electricity="0.00" noise="55.94" route="!chegongzhuangxilu_east_T2.23" type="vt_car" waiting="56.00" lane="E5_5" pos="51.80" speed="0.00" angle="269.48" x="47.97" y="371.04"/>
        <vehicle id="chegongzhuangxilu_east_T2.24" eclass="HBEFA3/PC_G_EU4" CO2="2624.72" CO="164.78" HC="0.81" NOx="1.20" PMx="0.07" fuel="837.22" electricity="0.00" noise="55.94" route="!chegongzhuangxilu_east_T2.24" type="vt_car" waiting="46.00" lane="E5_5" pos="44.30" speed="0.00" angle="269.48" x="55.48" y="371.10"/>
        <vehicle id="chegongzhuangxilu_east_T2.26" eclass="HBEFA3/PC_G_EU4" CO2="2624.72" CO="164.78" HC="0.81" NOx="1.20" PMx="0.07" fuel="837.22" electricity="0.00" noise="55.94" route="!chegongzhuangxilu_east_T2.26" type="vt_car" waiting="30.00" lane="E5_5" pos="36.79" speed="0.00" angle="269.48" x="62.99" y="371.17"/>
        <vehicle id="chegongzhuangxilu_east_T2.27" eclass="HBEFA3/PC_G_EU4" CO2="2624.72" CO="164.78" HC="0.81" NOx="1.20" PMx="0.07" fuel="837.22" electricity="0.00" noise="55.94" route="!chegongzhuangxilu_east_T2.27" type="vt_car" waiting="18.00" lane="E5_7" pos="59.30" speed="0.00" angle="269.48" x="40.44" y="364.97"/>
        <vehicle id="chegongzhuangxilu_east_T2.28" eclass="HBEFA3/PC_G_EU4" CO2="2624.72" CO="164.78" HC="0.81" NOx="1.20" PMx="0.07" fuel="837.22" electricity="0.00" noise="55.94" route="!chegongzhuangxilu_east_T2.28" type="vt_car" waiting="9.00" lane="E5_5" pos="29.29" speed="0.00" angle="269.48" x="70.50" y="371.24"/>
        <vehicle id="chegongzhuangxilu_east_T2.29" eclass="HBEFA3/PC_G_EU4" CO2="2618.20" CO="164.00" HC="0.81" NOx="1.20" PMx="0.07" fuel="835.14" electricity="0.00" noise="55.10" route="!chegongzhuangxilu_east_T2.29" type="vt_car" waiting="1.00" lane="E5_5" pos="21.79" speed="0.04" angle="269.48" x="78.01" y="371.31"/>
        <vehicle id="chegongzhuangxilu_east_T2.30" eclass="HBEFA3/PC_G_EU4" CO2="5872.36" CO="61.74" HC="0.42" NOx="2.35" PMx="0.10" fuel="1873.00" electricity="0.00" noise="67.59" route="!chegongzhuangxilu_east_T2.30" type="vt_car" waiting="0.00" lane="E4_6" pos="11.85" speed="14.77" angle="269.78" x="142.14" y="366.18"/>
        <vehicle id="chegongzhuangxilu_east_T2.31" eclass="HBEFA3/PC_G_EU4" CO2="5940.60" CO="115.59" HC="0.67" NOx="2.55" PMx="0.12" fuel="1894.78" electricity="0.00" noise="67.38" route="!chegongzhuangxilu_east_T2.31" type="vt_car" waiting="0.00" lane="E3_4" pos="26.69" speed="8.26" angle="270.00" x="275.04" y="374.25"/>
        <vehicle id="chegongzhuangxilu_west_T2.10" eclass="HBEFA3/PC_G_EU4" CO2="2624.72" CO="164.78" HC="0.81" NOx="1.20" PMx="0.07" fuel="837.22" electricity="0.00" noise="55.94" route="!chegongzhuangxilu_west_T2.10" type="vt_car" waiting="14.00" lane="E17_4" pos="41.84" speed="0.00" angle="180.12" x="-11.32" y="-76.71"/>
        <vehicle id="chegongzhuangxilu_west_T2.11" eclass="HBEFA3/PC_G_EU4" CO2="2624.72" CO="164.78" HC="0.81" NOx="1.20" PMx="0.07" fuel="837.22" electricity="0.00" noise="55.94" route="!chegongzhuangxilu_west_T2.11" type="vt_car" waiting="31.00" lane="E9_4" pos="34.42" speed="0.00" angle="90.15" x="-32.54" y="359.01"/>
        <vehicle id="chegongzhuangxilu_west_T2.12" eclass="HBEFA3/PC_G_EU4" CO2="2624.72" CO="164.78" HC="0.81" NOx="1.20" PMx="0.07" fuel="837.22" electricity="0.00" noise="55.94" route="!chegongzhuangxilu_west_T2.12" type="vt_car" waiting="10.00" lane="E9_3" pos="26.92" speed="0.00" angle="90.15" x="-40.02" y="355.53"/>
        <vehicle id="chegongzhuangxilu_west_T2.13" eclass="HBEFA3/PC_G_EU4" CO2="2624.38" CO="0.00" HC="0.05" NOx="0.83" PMx="0.02" fuel="837.07" electricity="0.00" noise="65.01" route="!chegongzhuangxilu_west_T2.13" type="vt_car" waiting="0.00" lane="E8_5" pos="165.15" speed="14.30" angle="90.00" x="-137.25" y="362.60"/>
        <vehicle id="chegongzhuangxilu_west_T2.2" eclass="HBEFA3/PC_G_EU4" CO2="5755.63" CO="125.62" HC="0.71" NOx="2.49" PMx="0.12" fuel="1835.78" electricity="0.00" noise="67.66" route="!chegongzhuangxilu_west_T2.2" type="vt_car" waiting="0.00" lane=":J25_19_0" pos="7.92" speed="7.03" angle="172.91" x="-6.66" y="-598.70"/>
        <vehicle id="chegongzhuangxilu_west_T2.4" eclass="HBEFA3/PC_G_EU4" CO2="7967.52" CO="140.52" HC="0.83" NOx="3.46" PMx="0.17" fuel="2541.25" electricity="0.00" noise="70.17" route="!chegongzhuangxilu_west_T2.4" type="vt_car" waiting="0.00" lane=":J25_19_1" pos="28.44" speed="9.92" angle="153.99" x="1.96" y="-618.39"/>
        <vehicle id="chegongzhuangxilu_west_T2.7" eclass="HBEFA3/PC_G_EU4" CO2="0.00" CO="0.00" HC="0.00" NOx="0.00" PMx="0.00" fuel="0.00" electricity="0.00" noise="61.36" route="!chegongzhuangxilu_west_T2.7" type="vt_car" waiting="0.00" lane=":J25_15_3" pos="24.53" speed="10.52" angle="217.17" x="-17.43" y="-613.40"/>
        <vehicle id="chegongzhuangxilu_west_T2.8" eclass="HBEFA3/PC_G_EU4" CO2="8873.75" CO="152.39" HC="0.91" NOx="3.87" PMx="0.19" fuel="2830.29" electricity="0.00" noise="71.20" route="!chegongzhuangxilu_west_T2.8" type="vt_car" waiting="0.00" lane=":J25_19_2" pos="30.92" speed="10.67" angle="152.53" x="6.78" y="-620.59"/>
        <vehicle id="chegongzhuangxilu_west_T2.9" eclass="HBEFA3/PC_G_EU4" CO2="2624.72" CO="164.78" HC="0.81" NOx="1.20" PMx="0.07" fuel="837.22" electricity="0.00" noise="55.94" route="!chegongzhuangxilu_west_T2.9" type="vt_car" waiting="74.00" lane="E9_3" pos="34.42" speed="0.00" angle="90.15" x="-32.53" y="355.51"/>
        <vehicle id="fuchenglu_east_T2.17" eclass="HBEFA3/PC_G_EU4" CO2="2624.72" CO="164.78" HC="0.81" NOx="1.20" PMx="0.07" fuel="837.22" electricity="0.00" noise="55.94" route="!fuchenglu_east_T2.17" type="vt_car" waiting="18.00" lane="E34_4" pos="81.46" speed="0.00" angle="274.23" x="31.74" y="-621.15"/>
        <vehicle id="fuchenglu_east_T2.18" eclass="HBEFA3/PC_G_EU4" CO2="2624.72" CO="164.78" HC="0.81" NOx="1.20" PMx="0.07" fuel="837.22" electricity="0.00" noise="55.94" route="!fuchenglu_east_T2.18" type="vt_car" waiting="6.00" lane="E34_5" pos="81.46" speed="0.00" angle="274.23" x="31.71" y="-624.16"/>
        <vehicle id="fuchenglu_east_T2.19" eclass="HBEFA3/PC_G_EU4" CO2="1566.03" CO="0.00" HC="0.00" NOx="0.33" PMx="0.00" fuel="499.51" electricity="0.00" noise="64.43" route="!fuchenglu_east_T2.19" type="vt_car" waiting="0.00" lane="E33_3" pos="184.28" speed="14.35" angle="274.18" x="122.57" y="-625.40"/>
        <vehicle id="fuchenglu_east_T2.20" eclass="HBEFA3/PC_G_EU4" CO2="3053.51" CO="147.57" HC="0.74" NOx="1.36" PMx="0.07" fuel="973.98" electricity="0.00" noise="63.25" route="!fuchenglu_east_T2.20" type="vt_car" waiting="0.00" lane="E33_4" pos="6.63" speed="1.53" angle="274.18" x="299.46" y="-642.35"/>
        <vehicle id="fuchenglu_east_T2.7" eclass="HBEFA3/PC_G_EU4" CO2="2624.72" CO="164.78" HC="0.81" NOx="1.20" PMx="0.07" fuel="837.22" electricity="0.00" noise="55.94" route="!fuchenglu_east_T2.7" type="vt_car" waiting="89.00" lane="E14_7" pos="38.18" speed="0.00" angle="359.88" x="1.55" y="332.52"/>
        <vehicle id="fuchenglu_west_T2.1" eclass="HBEFA3/PC_G_EU4" CO2="2624.72" CO="164.78" HC="0.81" NOx="1.20" PMx="0.07" fuel="837.22" electricity="0.00" noise="55.94" route="!fuchenglu_west_T2.1" type="vt_car" waiting="270.00" lane="E37_2" pos="100.50" speed="0.00" angle="94.20" x="-205.97" y="-633.55"/>
        <vehicle id="fuchenglu_west_T2.10" eclass="HBEFA3/PC_G_EU4" CO2="2624.72" CO="164.78" HC="0.81" NOx="1.20" PMx="0.07" fuel="837.22" electricity="0.00" noise="55.94" route="!fuchenglu_west_T2.10" type="vt_car" waiting="119.00" lane="E37_2" pos="78.00" speed="0.00" angle="94.20" x="-228.41" y="-631.91"/>
        <vehicle id="fuchenglu_west_T2.11" eclass="HBEFA3/PC_G_EU4" CO2="2624.72" CO="164.78" HC="0.81" NOx="1.20" PMx="0.07" fuel="837.22" electricity="0.00" noise="55.94" route="!fuchenglu_west_T2.11" type="vt_car" waiting="102.00" lane="E37_2" pos="70.49" speed="0.00" angle="94.20" x="-235.89" y="-631.36"/>
        <vehicle id="fuchenglu_west_T2.13" eclass="HBEFA3/PC_G_EU4" CO2="2397.27" CO="0.00" HC="0.05" NOx="0.75" PMx="0.01" fuel="764.63" electricity="0.00" noise="64.20" route="!fuchenglu_west_T2.13" type="vt_car" waiting="0.00" lane="E27_3" pos="297.25" speed="13.25" angle="359.86" x="13.48" y="-295.32"/>
        <vehicle id="fuchenglu_west_T2.15" eclass="HBEFA3/PC_G_EU4" CO2="2624.72" CO="164.78" HC="0.81" NOx="1.20" PMx="0.07" fuel="837.22" electricity="0.00" noise="55.94" route="!fuchenglu_west_T2.15" type="vt_car" waiting="15.00" lane="E38_4" pos="88.87" speed="0.00" angle="94.39" x="-31.32" y="-635.65"/>
        <vehicle id="fuchenglu_west_T2.16" eclass="HBEFA3/PC_G_EU4" CO2="2621.02" CO="164.32" HC="0.81" NOx="1.20" PMx="0.07" fuel="836.04" electricity="0.00" noise="55.27" route="!fuchenglu_west_T2.16" type="vt_car" waiting="1.00" lane="E38_4" pos="81.35" speed="0.02" angle="94.39" x="-38.79" y="-635.08"/>
        <vehicle id="fuchenglu_west_T2.17" eclass="HBEFA3/PC_G_EU4" CO2="2615.35" CO="163.48" HC="0.81" NOx="1.20" PMx="0.07" fuel="834.23" electricity="0.00" noise="55.62" route="!fuchenglu_west_T2.17" type="vt_car" waiting="1.00" lane="E37_2" pos="62.97" speed="0.06" angle="94.20" x="-243.39" y="-630.81"/>
        <vehicle id="fuchenglu_west_T2.2" eclass="HBEFA3/PC_G_EU4" CO2="2624.72" CO="164.78" HC="0.81" NOx="1.20" PMx="0.07" fuel="837.22" electricity="0.00" noise="55.94" route="!fuchenglu_west_T2.2" type="vt_car" waiting="88.00" lane="E14_7" pos="30.68" speed="0.00" angle="359.88" x="1.57" y="325.00"/>
        <vehicle id="fuchenglu_west_T2.6" eclass="HBEFA3/PC_G_EU4" CO2="4982.94" CO="123.61" HC="0.68" NOx="2.16" PMx="0.10" fuel="1589.34" electricity="0.00" noise="66.54" route="!fuchenglu_west_T2.6" type="vt_car" waiting="0.00" lane="E29_4" pos="371.61" speed="5.90" angle="180.00" x="-10.26" y="-495.03"/>
        <vehicle id="fuchenglu_west_T2.8" eclass="HBEFA3/PC_G_EU4" CO2="2624.72" CO="164.78" HC="0.81" NOx="1.20" PMx="0.07" fuel="837.22" electricity="0.00" noise="55.94" route="!fuchenglu_west_T2.8" type="vt_car" waiting="150.00" lane="E37_2" pos="93.00" speed="0.00" angle="94.20" x="-213.45" y="-633.01"/>
        <vehicle id="fuchenglu_west_T2.9" eclass="HBEFA3/PC_G_EU4" CO2="2624.72" CO="164.78" HC="0.81" NOx="1.20" PMx="0.07" fuel="837.22" electricity="0.00" noise="55.94" route="!fuchenglu_west_T2.9" type="vt_car" waiting="134.00" lane="E37_2" pos="85.50" speed="0.00" angle="94.20" x="-220.93" y="-632.46"/>
        <vehicle id="shoutinanlu_north_T2.10" eclass="HBEFA3/PC_G_EU4" CO2="2624.72" CO="164.78" HC="0.81" NOx="1.20" PMx="0.07" fuel="837.22" electricity="0.00" noise="55.94" route="!shoutinanlu_north_T2.10" type="vt_car" waiting="177.00" lane="E13_8" pos="57.27" speed="0.00" angle="180.07" x="-2.36" y="397.39"/>
        <vehicle id="shoutinanlu_north_T2.11" eclass="HBEFA3/PC_G_EU4" CO2="2624.72" CO="164.78" HC="0.81" NOx="1.20" PMx="0.07" fuel="837.22" electricity="0.00" noise="55.94" route="!shoutinanlu_north_T2.11" type="vt_car" waiting="170.00" lane="E13_8" pos="49.77" speed="0.00" angle="180.07" x="-2.35" y="404.56"/>
        <vehicle id="shoutinanlu_north_T2.12" eclass="HBEFA3/PC_G_EU4" CO2="2624.72" CO="164.78" HC="0.81" NOx="1.20" PMx="0.07" fuel="837.22" electricity="0.00" noise="55.94" route="!shoutinanlu_north_T2.12" type="vt_car" waiting="15.00" lane="E17_7" pos="49.60" speed="0.00" angle="180.12" x="-2.33" y="-84.50"/>
        <vehicle id="shoutinanlu_north_T2.13" eclass="HBEFA3/PC_G_EU4" CO2="2624.72" CO="164.78" HC="0.81" NOx="1.20" PMx="0.07" fuel="837.22" electricity="0.00" noise="55.94" route="!shoutinanlu_north_T2.13" type="vt_car" waiting="18.00" lane="E17_4" pos="49.34" speed="0.00" angle="180.12" x="-11.33" y="-84.21"/>
        <vehicle id="shoutinanlu_north_T2.14" eclass="HBEFA3/PC_G_EU4" CO2="2624.72" CO="164.78" HC="0.81" NOx="1.20" PMx="0.07" fuel="837.22" electricity="0.00" noise="55.94" route="!shoutinanlu_north_T2.14" type="vt_car" waiting="20.00" lane="E17_5" pos="49.34" speed="0.00" angle="180.12" x="-8.33" y="-84.22"/>
        <vehicle id="shoutinanlu_north_T2.15" eclass="HBEFA3/PC_G_EU4" CO2="2624.72" CO="164.78" HC="0.81" NOx="1.20" PMx="0.07" fuel="837.22" electricity="0.00" noise="55.94" route="!shoutinanlu_north_T2.15" type="vt_car" waiting="12.00" lane="E17_4" pos="34.34" speed="0.00" angle="180.12" x="-11.30" y="-69.21"/>
        <vehicle id="shoutinanlu_north_T2.17" eclass="HBEFA3/PC_G_EU4" CO2="5250.46" CO="55.77" HC="0.38" NOx="2.09" PMx="0.09" fuel="1674.65" electricity="0.00" noise="66.68" route="!shoutinanlu_north_T2.17" type="vt_car" waiting="0.00" lane="E25_2" pos="146.23" speed="13.59" angle="270.03" x="-232.05" y="-105.67"/>
        <vehicle id="shoutinanlu_north_T2.18" eclass="HBEFA3/PC_G_EU4" CO2="2624.72" CO="164.78" HC="0.81" NOx="1.20" PMx="0.07" fuel="837.22" electricity="0.00" noise="55.94" route="!shoutinanlu_north_T2.18" type="vt_car" waiting="11.00" lane="E17_5" pos="41.84" speed="0.00" angle="180.12" x="-8.32" y="-76.72"/>
        <vehicle id="shoutinanlu_north_T2.20" eclass="HBEFA3/PC_G_EU4" CO2="2624.72" CO="164.78" HC="0.81" NOx="1.20" PMx="0.07" fuel="837.22" electricity="0.00" noise="55.94" route="!shoutinanlu_north_T2.20" type="vt_car" waiting="15.00" lane="E17_6" pos="56.84" speed="0.00" angle="180.12" x="-5.35" y="-91.73"/>
        <vehicle id="shoutinanlu_north_T2.22" eclass="HBEFA3/PC_G_EU4" CO2="2624.72" CO="164.78" HC="0.81" NOx="1.20" PMx="0.07" fuel="837.22" electricity="0.00" noise="55.94" route="!shoutinanlu_north_T2.22" type="vt_car" waiting="7.00" lane="E17_6" pos="41.84" speed="0.00" angle="180.12" x="-5.32" y="-76.73"/>
        <vehicle id="shoutinanlu_north_T2.23" eclass="HBEFA3/PC_G_EU4" CO2="2624.72" CO="164.78" HC="0.81" NOx="1.20" PMx="0.07" fuel="837.22" electricity="0.00" noise="55.94" route="!shoutinanlu_north_T2.23" type="vt_car" waiting="14.00" lane="E17_6" pos="49.34" speed="0.00" angle="180.12" x="-5.33" y="-84.23"/>
        <vehicle id="shoutinanlu_north_T2.27" eclass="HBEFA3/PC_G_EU4" CO2="2210.13" CO="0.00" HC="0.02" NOx="0.65" PMx="0.01" fuel="704.94" electricity="0.00" noise="64.19" route="!shoutinanlu_north_T2.27" type="vt_car" waiting="0.00" lane="E16_3" pos="267.76" speed="13.44" angle="179.97" x="-13.91" y="65.63"/>
        <vehicle id="shoutinanlu_north_T2.28" eclass="HBEFA3/PC_G_EU4" CO2="1502.59" CO="0.00" HC="0.00" NOx="0.32" PMx="0.00" fuel="479.27" electricity="0.00" noise="63.85" route="!shoutinanlu_north_T2.28" type="vt_car" waiting="0.00" lane="E16_3" pos="144.77" speed="13.59" angle="179.97" x="-13.97" y="188.60"/>
        <vehicle id="shoutinanlu_north_T2.29" eclass="HBEFA3/PC_G_EU4" CO2="2158.21" CO="0.00" HC="0.05" NOx="0.65" PMx="0.01" fuel="688.39" electricity="0.00" noise="63.51" route="!shoutinanlu_north_T2.29" type="vt_car" waiting="0.00" lane="E16_4" pos="8.03" speed="12.47" angle="179.97" x="-10.29" y="325.38"/>
        <vehicle id="shoutinanlu_north_T2.3" eclass="HBEFA3/PC_G_EU4" CO2="2624.72" CO="164.78" HC="0.81" NOx="1.20" PMx="0.07" fuel="837.22" electricity="0.00" noise="55.94" route="!shoutinanlu_north_T2.3" type="vt_car" waiting="245.00" lane="E13_3" pos="57.27" speed="0.00" angle="180.12" x="-18.09" y="397.38"/>
        <vehicle id="shoutinanlu_north_T2.30" eclass="HBEFA3/PC_G_EU4" CO2="0.00" CO="0.00" HC="0.00" NOx="0.00" PMx="0.00" fuel="0.00" electricity="0.00" noise="63.73" route="!shoutinanlu_north_T2.30" type="vt_car" waiting="0.00" lane="E13_2" pos="23.33" speed="14.07" angle="180.09" x="-21.03" y="436.39"/>
        <vehicle id="shoutinanlu_north_T2.31" eclass="HBEFA3/PC_G_EU4" CO2="3305.68" CO="20.77" HC="0.17" NOx="1.19" PMx="0.04" fuel="1054.37" electricity="0.00" noise="64.65" route="!shoutinanlu_north_T2.31" type="vt_car" waiting="0.00" lane="E10_5" pos="114.51" speed="12.83" angle="180.05" x="-9.41" y="561.33"/>
        <vehicle id="shoutinanlu_north_T2.32" eclass="HBEFA3/PC_G_EU4" CO2="4302.83" CO="141.25" HC="0.74" NOx="1.90" PMx="0.09" fuel="1372.43" electricity="0.00" noise="66.96" route="!shoutinanlu_north_T2.32" type="vt_car" waiting="0.00" lane="E10_2" pos="10.10" speed="3.59" angle="180.05" x="-20.81" y="665.75"/>
        <vehicle id="shoutinanlu_north_T2.5" eclass="HBEFA3/PC_G_EU4" CO2="2624.72" CO="164.78" HC="0.81" NOx="1.20" PMx="0.07" fuel="837.22" electricity="0.00" noise="55.94" route="!shoutinanlu_north_T2.5" type="vt_car" waiting="26.00" lane="E17_4" pos="56.84" speed="0.00" angle="180.12" x="-11.35" y="-91.71"/>
        <vehicle id="shoutinanlu_north_T2.6" eclass="HBEFA3/PC_G_EU4" CO2="2624.72" CO="164.78" HC="0.81" NOx="1.20" PMx="0.07" fuel="837.22" electricity="0.00" noise="55.94" route="!shoutinanlu_north_T2.6" type="vt_car" waiting="18.00" lane="E17_7" pos="57.10" speed="0.00" angle="180.12" x="-2.35" y="-92.00"/>
        <vehicle id="shoutinanlu_north_T2.7" eclass="HBEFA3/PC_G_EU4" CO2="2624.72" CO="164.78" HC="0.81" NOx="1.20" PMx="0.07" fuel="837.22" electricity="0.00" noise="55.94" route="!shoutinanlu_north_T2.7" type="vt_car" waiting="22.00" lane="E17_5" pos="56.84" speed="0.00" angle="180.12" x="-8.35" y="-91.72"/>
        <vehicle id="shoutinanlu_north_T2.9" eclass="HBEFA3/PC_G_EU4" CO2="2624.72" CO="164.78" HC="0.81" NOx="1.20" PMx="0.07" fuel="837.22" electricity="0.00" noise="55.94" route="!shoutinanlu_north_T2.9" type="vt_car" waiting="189.00" lane="E13_7" pos="57.27" speed="0.00" angle="180.06" x="-5.88" y="397.38"/>
        <vehicle id="zengguanglu_east_T2.1" eclass="HBEFA3/PC_G_EU4" CO2="2624.72" CO="164.78" HC="0.81" NOx="1.20" PMx="0.07" fuel="837.22" electricity="0.00" noise="55.94" route="!zengguanglu_east_T2.1" type="vt_car" waiting="247.00" lane="E18_2" pos="75.30" speed="0.00" angle="269.96" x="32.40" y="-105.01"/>
        <vehicle id="zengguanglu_east_T2.10" eclass="HBEFA3/PC_G_EU4" CO2="2624.72" CO="164.78" HC="0.81" NOx="1.20" PMx="0.07" fuel="837.22" electricity="0.00" noise="55.94" route="!zengguanglu_east_T2.10" type="vt_car" waiting="9.00" lane="E18_2" pos="60.30" speed="0.00" angle="269.96" x="47.40" y="-105.00"/>
        <vehicle id="zengguanglu_east_T2.11" eclass="HBEFA3/PC_G_EU4" CO2="0.00" CO="0.00" HC="0.00" NOx="0.00" PMx="0.00" fuel="0.00" electricity="0.00" noise="51.31" route="!zengguanglu_east_T2.11" type="vt_car" waiting="0.00" lane="E18_3" pos="74.69" speed="5.57" angle="269.96" x="33.04" y="-108.01"/>
        <vehicle id="zengguanglu_east_T2.5" eclass="HBEFA3/PC_G_EU4" CO2="7606.41" CO="131.07" HC="0.78" NOx="3.28" PMx="0.16" fuel="2426.08" electricity="0.00" noise="69.50" route="!zengguanglu_east_T2.5" type="vt_car" waiting="0.00" lane=":J25_19_0" pos="28.52" speed="10.14" angle="154.19" x="-1.62" y="-618.40"/>
        <vehicle id="zengguanglu_east_T2.6" eclass="HBEFA3/PC_G_EU4" CO2="0.00" CO="0.00" HC="0.00" NOx="0.00" PMx="0.00" fuel="0.00" electricity="0.00" noise="63.11" route="!zengguanglu_east_T2.6" type="vt_car" waiting="0.00" lane="E25_2" pos="61.22" speed="13.73" angle="270.03" x="-147.08" y="-105.72"/>
        <vehicle id="zengguanglu_east_T2.7" eclass="HBEFA3/PC_G_EU4" CO2="2624.72" CO="164.78" HC="0.81" NOx="1.20" PMx="0.07" fuel="837.22" electricity="0.00" noise="55.94" route="!zengguanglu_east_T2.7" type="vt_car" waiting="99.00" lane="E18_2" pos="67.80" speed="0.00" angle="269.96" x="39.90" y="-105.00"/>
        <vehicle id="zengguanglu_east_T2.8" eclass="HBEFA3/PC_G_EU4" CO2="5094.19" CO="94.74" HC="0.55" NOx="2.14" PMx="0.09" fuel="1624.81" electricity="0.00" noise="65.71" route="!zengguanglu_east_T2.8" type="vt_car" waiting="0.00" lane=":J16_17_0" pos="34.17" speed="8.58" angle="231.46" x="-0.63" y="-116.05"/>
        <vehicle id="zengguanglu_east_T2.9" eclass="HBEFA3/PC_G_EU4" CO2="4877.19" CO="121.45" HC="0.67" NOx="2.11" PMx="0.10" fuel="1555.61" electricity="0.00" noise="66.24" route="!zengguanglu_east_T2.9" type="vt_car" waiting="0.00" lane=":J16_15_1" pos="15.24" speed="5.90" angle="272.66" x="16.19" y="-107.29"/>
        <vehicle id="zengguanglu_west_T2.4" eclass="HBEFA3/PC_G_EU4" CO2="2589.90" CO="15.14" HC="0.13" NOx="0.88" PMx="0.02" fuel="826.07" electricity="0.00" noise="63.32" route="!zengguanglu_west_T2.4" type="vt_car" waiting="0.00" lane="E21_2" pos="2.43" speed="11.61" angle="87.87" x="122.08" y="-109.92"/>