<?xml version="1.0" encoding="UTF-8"?>

<!-- generated on 2022-10-11 16:31:07 by Eclipse SUMO GUI Version 1.14.1
<configuration xmlns:xsi="http://www.w3.org/2001/XMLSchema-instance" xsi:noNamespaceSchemaLocation="http://sumo.dlr.de/xsd/sumoConfiguration.xsd">

    <input>
        <net-file value="../../sumo_class-2022fall/example.net.xml"/>
        <route-files value="../../sumo_class-2022fall/example_rand.rou.xml"/>
        <additional-files value="../../sumo_class-2022fall/add.E1.xml,../../sumo_class-2022fall/add.E2.xml,../../sumo_class-2022fall/add.E3.xml,../../sumo_class-2022fall/lanedata_dump.add.xml,../../sumo_class-2022fall/edgedata_dump.add.xml"/>
    </input>

    <output>
        <write-license value="true"/>
        <output-prefix value="OUTPUT-"/>
        <emission-output value="../../sumo_class-2022fall/emission.xml"/>
        <queue-output value="../../sumo_class-2022fall/queue.xml"/>
        <summary-output value="../../sumo_class-2022fall/summary2.xml"/>
    </output>

    <time>
        <begin value="0"/>
        <end value="3600"/>
    </time>

    <processing>
        <default.speeddev value="0"/>
    </processing>

    <report>
        <duration-log.disable value="true"/>
        <no-step-log value="true"/>
    </report>

    <emissions>
        <device.emissions.period value="100"/>
    </emissions>

    <traci_server>
        <remote-port value="57868"/>
    </traci_server>

    <gui_only>
        <gui-settings-file value="../../sumo_class-2022fall/viewsettings.xml"/>
        <start value="true"/>
    </gui_only>

</configuration>
-->

<queue-export xmlns:xsi="http://www.w3.org/2001/XMLSchema-instance" xsi:noNamespaceSchemaLocation="http://sumo.dlr.de/xsd/queue_file.xsd">
    <data timestep="0.00">
        <lanes/>
    </data>
    <data timestep="1.00">
        <lanes/>
    </data>
    <data timestep="2.00">
        <lanes/>
    </data>
    <data timestep="3.00">
        <lanes/>
    </data>
    <data timestep="4.00">
        <lanes/>
    </data>
    <data timestep="5.00">
        <lanes/>
    </data>
    <data timestep="6.00">
        <lanes/>
    </data>
    <data timestep="7.00">
        <lanes/>
    </data>
    <data timestep="8.00">
        <lanes/>
    </data>
    <data timestep="9.00">
        <lanes/>
    </data>
    <data timestep="10.00">
        <lanes/>
    </data>
    <data timestep="11.00">
        <lanes/>
    </data>
    <data timestep="12.00">
        <lanes/>
    </data>
    <data timestep="13.00">
        <lanes/>
    </data>
    <data timestep="14.00">
        <lanes/>
    </data>
    <data timestep="15.00">
        <lanes/>
    </data>
    <data timestep="16.00">
        <lanes/>
    </data>
    <data timestep="17.00">
        <lanes/>
    </data>
    <data timestep="18.00">
        <lanes/>
    </data>
    <data timestep="19.00">
        <lanes/>
    </data>
    <data timestep="20.00">
        <lanes/>
    </data>
    <data timestep="21.00">
        <lanes/>
    </data>
    <data timestep="22.00">
        <lanes/>
    </data>
    <data timestep="23.00">
        <lanes/>
    </data>
    <data timestep="24.00">
        <lanes/>
    </data>
    <data timestep="25.00">
        <lanes/>
    </data>
    <data timestep="26.00">
        <lanes/>
    </data>
    <data timestep="27.00">
        <lanes/>
    </data>
    <data timestep="28.00">
        <lanes/>
    </data>
    <data timestep="29.00">
        <lanes/>
    </data>
    <data timestep="30.00">
        <lanes/>
    </data>
    <data timestep="31.00">
        <lanes/>
    </data>
    <data timestep="32.00">
        <lanes/>
    </data>
    <data timestep="33.00">
        <lanes/>
    </data>
    <data timestep="34.00">
        <lanes/>
    </data>
    <data timestep="35.00">
        <lanes/>
    </data>
    <data timestep="36.00">
        <lanes/>
    </data>
    <data timestep="37.00">
        <lanes/>
    </data>
    <data timestep="38.00">
        <lanes/>
    </data>
    <data timestep="39.00">
        <lanes/>
    </data>
    <data timestep="40.00">
        <lanes/>
    </data>
    <data timestep="41.00">
        <lanes/>
    </data>
    <data timestep="42.00">
        <lanes/>
    </data>
    <data timestep="43.00">
        <lanes/>
    </data>
    <data timestep="44.00">
        <lanes>
            <lane id="E2577_1" queueing_time="0.00" queueing_length="0.00" queueing_length_experimental="6.00"/>
        </lanes>
    </data>
    <data timestep="45.00">
        <lanes>
            <lane id="E2577_1" queueing_time="1.00" queueing_length="6.00" queueing_length_experimental="6.00"/>
        </lanes>
    </data>
    <data timestep="46.00">
        <lanes>
            <lane id="E2577_1" queueing_time="2.00" queueing_length="6.00" queueing_length_experimental="6.00"/>
        </lanes>
    </data>
    <data timestep="47.00">
        <lanes>
            <lane id="E2577_1" queueing_time="3.00" queueing_length="6.00" queueing_length_experimental="6.00"/>
        </lanes>
    </data>
    <data timestep="48.00">
        <lanes>
            <lane id="E2577_1" queueing_time="4.00" queueing_length="6.00" queueing_length_experimental="6.00"/>
        </lanes>
    </data>
    <data timestep="49.00">
        <lanes>
            <lane id="E2577_1" queueing_time="5.00" queueing_length="6.00" queueing_length_experimental="6.00"/>
        </lanes>
    </data>
    <data timestep="50.00">
        <lanes>
            <lane id="E2577_1" queueing_time="6.00" queueing_length="6.00" queueing_length_experimental="6.00"/>
        </lanes>
    </data>
    <data timestep="51.00">
        <lanes>
            <lane id="E10_1" queueing_time="0.00" queueing_length="0.00" queueing_length_experimental="6.09"/>
            <lane id="E2577_1" queueing_time="7.00" queueing_length="6.00" queueing_length_experimental="6.00"/>
        </lanes>
    </data>
    <data timestep="52.00">
        <lanes>
            <lane id="E10_1" queueing_time="1.00" queueing_length="6.01" queueing_length_experimental="6.01"/>
            <lane id="E2577_1" queueing_time="8.00" queueing_length="6.00" queueing_length_experimental="6.00"/>
        </lanes>
    </data>
    <data timestep="53.00">
        <lanes>
            <lane id="-E0493_0" queueing_time="0.00" queueing_length="0.00" queueing_length_experimental="6.38"/>
            <lane id="E10_1" queueing_time="2.00" queueing_length="6.00" queueing_length_experimental="6.00"/>
            <lane id="E2577_1" queueing_time="9.00" queueing_length="6.00" queueing_length_experimental="6.00"/>
        </lanes>
    </data>
    <data timestep="54.00">
        <lanes>
            <lane id="-E0493_0" queueing_time="0.00" queueing_length="0.00" queueing_length_experimental="6.00"/>
            <lane id="E10_1" queueing_time="3.00" queueing_length="6.00" queueing_length_experimental="6.00"/>
            <lane id="E2577_1" queueing_time="10.00" queueing_length="6.00" queueing_length_experimental="6.00"/>
        </lanes>
    </data>
    <data timestep="55.00">
        <lanes>
            <lane id="-E0493_0" queueing_time="1.00" queueing_length="6.00" queueing_length_experimental="6.00"/>
            <lane id="E10_1" queueing_time="4.00" queueing_length="6.00" queueing_length_experimental="6.00"/>
            <lane id="E2577_1" queueing_time="11.00" queueing_length="6.00" queueing_length_experimental="6.00"/>
        </lanes>
    </data>
    <data timestep="56.00">
        <lanes>
            <lane id="-E0493_0" queueing_time="2.00" queueing_length="6.00" queueing_length_experimental="6.00"/>
            <lane id="E0_2" queueing_time="0.00" queueing_length="0.00" queueing_length_experimental="6.14"/>
            <lane id="E10_1" queueing_time="5.00" queueing_length="6.00" queueing_length_experimental="6.00"/>
            <lane id="E2577_1" queueing_time="12.00" queueing_length="6.00" queueing_length_experimental="6.00"/>
        </lanes>
    </data>
    <data timestep="57.00">
        <lanes>
            <lane id="-E0493_0" queueing_time="3.00" queueing_length="6.00" queueing_length_experimental="6.00"/>
            <lane id="-E0493_3" queueing_time="0.00" queueing_length="0.00" queueing_length_experimental="6.08"/>
            <lane id="E0_2" queueing_time="0.00" queueing_length="0.00" queueing_length_experimental="6.04"/>
            <lane id="E10_1" queueing_time="6.00" queueing_length="6.00" queueing_length_experimental="6.00"/>
            <lane id="E2577_1" queueing_time="13.00" queueing_length="6.00" queueing_length_experimental="6.00"/>
            <lane id="E2577_2" queueing_time="1.00" queueing_length="6.08" queueing_length_experimental="6.08"/>
        </lanes>
    </data>
    <data timestep="58.00">
        <lanes>
            <lane id="-E0493_0" queueing_time="4.00" queueing_length="6.00" queueing_length_experimental="6.00"/>
            <lane id="-E0493_3" queueing_time="1.00" queueing_length="6.03" queueing_length_experimental="6.03"/>
            <lane id="E0_2" queueing_time="1.00" queueing_length="6.01" queueing_length_experimental="6.01"/>
            <lane id="E10_1" queueing_time="7.00" queueing_length="6.00" queueing_length_experimental="6.00"/>
            <lane id="E2577_1" queueing_time="14.00" queueing_length="6.00" queueing_length_experimental="6.00"/>
            <lane id="E2577_2" queueing_time="2.00" queueing_length="6.03" queueing_length_experimental="6.03"/>
        </lanes>
    </data>
    <data timestep="59.00">
        <lanes>
            <lane id="-E0493_0" queueing_time="5.00" queueing_length="6.00" queueing_length_experimental="6.00"/>
            <lane id="-E0493_3" queueing_time="2.00" queueing_length="6.01" queueing_length_experimental="6.01"/>
            <lane id="E0_0" queueing_time="0.00" queueing_length="0.00" queueing_length_experimental="6.36"/>
            <lane id="E0_2" queueing_time="2.00" queueing_length="6.00" queueing_length_experimental="6.00"/>
            <lane id="E10_1" queueing_time="8.00" queueing_length="6.00" queueing_length_experimental="6.00"/>
            <lane id="E2577_1" queueing_time="15.00" queueing_length="6.00" queueing_length_experimental="6.00"/>
            <lane id="E2577_2" queueing_time="3.00" queueing_length="6.02" queueing_length_experimental="6.02"/>
        </lanes>
    </data>
    <data timestep="60.00">
        <lanes>
            <lane id="-E0493_0" queueing_time="6.00" queueing_length="6.00" queueing_length_experimental="6.00"/>
            <lane id="-E0493_3" queueing_time="3.00" queueing_length="6.00" queueing_length_experimental="6.00"/>
            <lane id="E0_0" queueing_time="0.00" queueing_length="0.00" queueing_length_experimental="6.15"/>
            <lane id="E0_2" queueing_time="3.00" queueing_length="6.00" queueing_length_experimental="6.00"/>
            <lane id="E10_1" queueing_time="9.00" queueing_length="6.00" queueing_length_experimental="6.00"/>
            <lane id="E2577_1" queueing_time="16.00" queueing_length="6.00" queueing_length_experimental="6.00"/>
            <lane id="E2577_2" queueing_time="4.00" queueing_length="6.01" queueing_length_experimental="6.01"/>
        </lanes>
    </data>
    <data timestep="61.00">
        <lanes>
            <lane id="-E0493_0" queueing_time="7.00" queueing_length="6.00" queueing_length_experimental="6.00"/>
            <lane id="-E0493_3" queueing_time="4.00" queueing_length="6.00" queueing_length_experimental="6.00"/>
            <lane id="E0_0" queueing_time="0.00" queueing_length="0.00" queueing_length_experimental="6.02"/>
            <lane id="E0_2" queueing_time="4.00" queueing_length="6.00" queueing_length_experimental="14.19"/>
            <lane id="E10_1" queueing_time="10.00" queueing_length="6.00" queueing_length_experimental="6.00"/>
            <lane id="E2577_1" queueing_time="17.00" queueing_length="6.00" queueing_length_experimental="6.00"/>
            <lane id="E2577_2" queueing_time="5.00" queueing_length="6.00" queueing_length_experimental="6.00"/>
        </lanes>
    </data>
    <data timestep="62.00">
        <lanes>
            <lane id="-E0493_0" queueing_time="8.00" queueing_length="6.00" queueing_length_experimental="6.00"/>
            <lane id="-E0493_3" queueing_time="5.00" queueing_length="6.00" queueing_length_experimental="6.00"/>
            <lane id="E0_0" queueing_time="1.00" queueing_length="6.01" queueing_length_experimental="6.01"/>
            <lane id="E0_2" queueing_time="5.00" queueing_length="6.00" queueing_length_experimental="13.72"/>
            <lane id="E10_1" queueing_time="11.00" queueing_length="6.00" queueing_length_experimental="6.00"/>
            <lane id="E2577_1" queueing_time="18.00" queueing_length="6.00" queueing_length_experimental="13.69"/>
            <lane id="E2577_2" queueing_time="6.00" queueing_length="6.00" queueing_length_experimental="6.00"/>
        </lanes>
    </data>
    <data timestep="63.00">
        <lanes>
            <lane id="-E0493_0" queueing_time="9.00" queueing_length="6.00" queueing_length_experimental="6.00"/>
            <lane id="-E0493_3" queueing_time="6.00" queueing_length="6.00" queueing_length_experimental="6.00"/>
            <lane id="E0_0" queueing_time="2.00" queueing_length="6.00" queueing_length_experimental="6.00"/>
            <lane id="E0_2" queueing_time="6.00" queueing_length="6.00" queueing_length_experimental="13.56"/>
            <lane id="E10_1" queueing_time="12.00" queueing_length="6.00" queueing_length_experimental="6.00"/>
            <lane id="E2577_1" queueing_time="19.00" queueing_length="6.00" queueing_length_experimental="13.51"/>
            <lane id="E2577_2" queueing_time="7.00" queueing_length="6.00" queueing_length_experimental="6.00"/>
        </lanes>
    </data>
    <data timestep="64.00">
        <lanes>
            <lane id="-E0493_0" queueing_time="10.00" queueing_length="6.00" queueing_length_experimental="6.00"/>
            <lane id="-E0493_3" queueing_time="7.00" queueing_length="6.00" queueing_length_experimental="6.00"/>
            <lane id="E0_0" queueing_time="3.00" queueing_length="6.00" queueing_length_experimental="6.00"/>
            <lane id="E0_2" queueing_time="7.00" queueing_length="13.53" queueing_length_experimental="13.53"/>
            <lane id="E10_1" queueing_time="13.00" queueing_length="6.00" queueing_length_experimental="6.00"/>
            <lane id="E2577_1" queueing_time="20.00" queueing_length="13.50" queueing_length_experimental="13.50"/>
            <lane id="E2577_2" queueing_time="8.00" queueing_length="6.00" queueing_length_experimental="6.00"/>
        </lanes>
    </data>
    <data timestep="65.00">
        <lanes>
            <lane id="-E0493_0" queueing_time="11.00" queueing_length="6.00" queueing_length_experimental="6.00"/>
            <lane id="-E0493_3" queueing_time="8.00" queueing_length="6.00" queueing_length_experimental="6.00"/>
            <lane id="E0_0" queueing_time="4.00" queueing_length="6.00" queueing_length_experimental="6.00"/>
            <lane id="E0_2" queueing_time="8.00" queueing_length="13.51" queueing_length_experimental="13.51"/>
            <lane id="E10_1" queueing_time="14.00" queueing_length="6.00" queueing_length_experimental="6.00"/>
            <lane id="E10_3" queueing_time="0.00" queueing_length="0.00" queueing_length_experimental="6.23"/>
            <lane id="E2577_1" queueing_time="21.00" queueing_length="13.50" queueing_length_experimental="13.50"/>
            <lane id="E2577_2" queueing_time="9.00" queueing_length="6.00" queueing_length_experimental="6.00"/>
        </lanes>
    </data>
    <data timestep="66.00">
        <lanes>
            <lane id="-E0493_0" queueing_time="12.00" queueing_length="6.00" queueing_length_experimental="6.00"/>
            <lane id="-E0493_3" queueing_time="9.00" queueing_length="6.00" queueing_length_experimental="6.00"/>
            <lane id="E0_0" queueing_time="5.00" queueing_length="6.00" queueing_length_experimental="6.00"/>
            <lane id="E0_2" queueing_time="9.00" queueing_length="13.50" queueing_length_experimental="13.50"/>
            <lane id="E10_1" queueing_time="15.00" queueing_length="6.00" queueing_length_experimental="6.00"/>
            <lane id="E10_3" queueing_time="0.00" queueing_length="0.00" queueing_length_experimental="6.11"/>
            <lane id="E2577_1" queueing_time="22.00" queueing_length="13.50" queueing_length_experimental="13.50"/>
            <lane id="E2577_2" queueing_time="10.00" queueing_length="6.00" queueing_length_experimental="6.00"/>
        </lanes>
    </data>
    <data timestep="67.00">
        <lanes>
            <lane id="-E0493_0" queueing_time="13.00" queueing_length="6.00" queueing_length_experimental="6.00"/>
            <lane id="-E0493_3" queueing_time="10.00" queueing_length="6.00" queueing_length_experimental="6.00"/>
            <lane id="E0_0" queueing_time="6.00" queueing_length="6.00" queueing_length_experimental="6.00"/>
            <lane id="E0_2" queueing_time="10.00" queueing_length="13.50" queueing_length_experimental="13.50"/>
            <lane id="E10_1" queueing_time="16.00" queueing_length="6.00" queueing_length_experimental="6.00"/>
            <lane id="E10_3" queueing_time="1.00" queueing_length="6.01" queueing_length_experimental="6.01"/>
            <lane id="E2577_1" queueing_time="23.00" queueing_length="13.50" queueing_length_experimental="13.50"/>
            <lane id="E2577_2" queueing_time="11.00" queueing_length="6.00" queueing_length_experimental="6.00"/>
        </lanes>
    </data>
    <data timestep="68.00">
        <lanes>
            <lane id="-E0493_0" queueing_time="14.00" queueing_length="6.00" queueing_length_experimental="6.00"/>
            <lane id="-E0493_3" queueing_time="11.00" queueing_length="6.00" queueing_length_experimental="6.00"/>
            <lane id="E0_0" queueing_time="7.00" queueing_length="6.00" queueing_length_experimental="6.00"/>
            <lane id="E0_2" queueing_time="11.00" queueing_length="13.50" queueing_length_experimental="13.50"/>
            <lane id="E10_1" queueing_time="17.00" queueing_length="6.00" queueing_length_experimental="6.00"/>
            <lane id="E10_3" queueing_time="2.00" queueing_length="6.01" queueing_length_experimental="6.01"/>
            <lane id="E2577_1" queueing_time="24.00" queueing_length="13.50" queueing_length_experimental="13.50"/>
            <lane id="E2577_2" queueing_time="12.00" queueing_length="6.00" queueing_length_experimental="6.00"/>
        </lanes>
    </data>
    <data timestep="69.00">
        <lanes>
            <lane id="-E0493_0" queueing_time="15.00" queueing_length="6.00" queueing_length_experimental="6.00"/>
            <lane id="-E0493_3" queueing_time="12.00" queueing_length="6.00" queueing_length_experimental="6.00"/>
            <lane id="E0_0" queueing_time="8.00" queueing_length="6.00" queueing_length_experimental="6.00"/>
            <lane id="E0_2" queueing_time="12.00" queueing_length="13.50" queueing_length_experimental="13.50"/>
            <lane id="E10_1" queueing_time="18.00" queueing_length="6.00" queueing_length_experimental="6.00"/>
            <lane id="E10_3" queueing_time="3.00" queueing_length="6.00" queueing_length_experimental="6.00"/>
            <lane id="E2577_1" queueing_time="25.00" queueing_length="13.50" queueing_length_experimental="13.50"/>
            <lane id="E2577_2" queueing_time="13.00" queueing_length="6.00" queueing_length_experimental="6.00"/>
        </lanes>
    </data>
    <data timestep="70.00">
        <lanes>
            <lane id="-E0493_0" queueing_time="16.00" queueing_length="6.00" queueing_length_experimental="6.00"/>
            <lane id="-E0493_3" queueing_time="13.00" queueing_length="6.00" queueing_length_experimental="6.00"/>
            <lane id="E0_0" queueing_time="9.00" queueing_length="6.00" queueing_length_experimental="6.00"/>
            <lane id="E0_2" queueing_time="13.00" queueing_length="13.50" queueing_length_experimental="13.50"/>
            <lane id="E10_1" queueing_time="19.00" queueing_length="6.00" queueing_length_experimental="6.00"/>
            <lane id="E10_3" queueing_time="4.00" queueing_length="6.00" queueing_length_experimental="13.58"/>
            <lane id="E2577_1" queueing_time="26.00" queueing_length="13.50" queueing_length_experimental="13.50"/>
            <lane id="E2577_2" queueing_time="14.00" queueing_length="6.00" queueing_length_experimental="6.00"/>
            <lane id="E2577_3" queueing_time="0.00" queueing_length="0.00" queueing_length_experimental="6.63"/>
        </lanes>
    </data>
    <data timestep="71.00">
        <lanes>
            <lane id="-E0493_0" queueing_time="17.00" queueing_length="6.00" queueing_length_experimental="6.00"/>
            <lane id="-E0493_3" queueing_time="14.00" queueing_length="6.00" queueing_length_experimental="6.00"/>
            <lane id="E0_0" queueing_time="10.00" queueing_length="6.00" queueing_length_experimental="6.00"/>
            <lane id="E0_2" queueing_time="14.00" queueing_length="13.50" queueing_length_experimental="13.50"/>
            <lane id="E10_1" queueing_time="20.00" queueing_length="6.00" queueing_length_experimental="6.00"/>
            <lane id="E10_3" queueing_time="5.00" queueing_length="13.51" queueing_length_experimental="13.51"/>
            <lane id="E2577_1" queueing_time="27.00" queueing_length="13.50" queueing_length_experimental="13.50"/>
            <lane id="E2577_2" queueing_time="15.00" queueing_length="6.00" queueing_length_experimental="6.00"/>
            <lane id="E2577_3" queueing_time="0.00" queueing_length="0.00" queueing_length_experimental="6.18"/>
        </lanes>
    </data>
    <data timestep="72.00">
        <lanes>
            <lane id="-E0493_0" queueing_time="18.00" queueing_length="6.00" queueing_length_experimental="6.00"/>
            <lane id="-E0493_3" queueing_time="15.00" queueing_length="6.00" queueing_length_experimental="6.00"/>
            <lane id="E0_0" queueing_time="11.00" queueing_length="6.00" queueing_length_experimental="6.00"/>
            <lane id="E0_2" queueing_time="15.00" queueing_length="13.50" queueing_length_experimental="13.50"/>
            <lane id="E10_1" queueing_time="21.00" queueing_length="6.00" queueing_length_experimental="6.00"/>
            <lane id="E10_3" queueing_time="6.00" queueing_length="13.51" queueing_length_experimental="13.51"/>
            <lane id="E2577_1" queueing_time="28.00" queueing_length="13.50" queueing_length_experimental="13.50"/>
            <lane id="E2577_2" queueing_time="16.00" queueing_length="6.00" queueing_length_experimental="6.00"/>
            <lane id="E2577_3" queueing_time="1.00" queueing_length="6.08" queueing_length_experimental="6.08"/>
        </lanes>
    </data>
    <data timestep="73.00">
        <lanes>
            <lane id="-E0493_0" queueing_time="19.00" queueing_length="6.00" queueing_length_experimental="6.00"/>
            <lane id="-E0493_3" queueing_time="16.00" queueing_length="6.00" queueing_length_experimental="6.00"/>
            <lane id="E0_0" queueing_time="12.00" queueing_length="6.00" queueing_length_experimental="6.00"/>
            <lane id="E0_2" queueing_time="16.00" queueing_length="13.50" queueing_length_experimental="13.50"/>
            <lane id="E10_1" queueing_time="22.00" queueing_length="6.00" queueing_length_experimental="6.00"/>
            <lane id="E10_3" queueing_time="7.00" queueing_length="13.50" queueing_length_experimental="13.50"/>
            <lane id="E2577_1" queueing_time="29.00" queueing_length="13.50" queueing_length_experimental="13.50"/>
            <lane id="E2577_2" queueing_time="17.00" queueing_length="6.00" queueing_length_experimental="6.00"/>
            <lane id="E2577_3" queueing_time="2.00" queueing_length="6.02" queueing_length_experimental="6.02"/>
        </lanes>
    </data>
    <data timestep="74.00">
        <lanes>
            <lane id="-E0493_0" queueing_time="20.00" queueing_length="6.00" queueing_length_experimental="6.00"/>
            <lane id="-E0493_3" queueing_time="17.00" queueing_length="6.00" queueing_length_experimental="6.00"/>
            <lane id="E0_0" queueing_time="13.00" queueing_length="6.00" queueing_length_experimental="6.00"/>
            <lane id="E0_2" queueing_time="17.00" queueing_length="13.50" queueing_length_experimental="13.50"/>
            <lane id="E10_1" queueing_time="23.00" queueing_length="6.00" queueing_length_experimental="6.00"/>
            <lane id="E10_3" queueing_time="8.00" queueing_length="13.50" queueing_length_experimental="21.22"/>
            <lane id="E2577_1" queueing_time="30.00" queueing_length="13.50" queueing_length_experimental="13.50"/>
            <lane id="E2577_2" queueing_time="18.00" queueing_length="6.00" queueing_length_experimental="6.00"/>
            <lane id="E2577_3" queueing_time="3.00" queueing_length="6.00" queueing_length_experimental="6.00"/>
        </lanes>
    </data>
    <data timestep="75.00">
        <lanes>
            <lane id="-E0493_0" queueing_time="21.00" queueing_length="6.00" queueing_length_experimental="6.00"/>
            <lane id="-E0493_3" queueing_time="18.00" queueing_length="6.00" queueing_length_experimental="6.00"/>
            <lane id="-E1129_0" queueing_time="0.00" queueing_length="0.00" queueing_length_experimental="6.17"/>
            <lane id="E0_0" queueing_time="14.00" queueing_length="6.00" queueing_length_experimental="6.00"/>
            <lane id="E0_2" queueing_time="18.00" queueing_length="13.50" queueing_length_experimental="13.50"/>
            <lane id="E10_1" queueing_time="24.00" queueing_length="6.00" queueing_length_experimental="6.00"/>
            <lane id="E10_3" queueing_time="9.00" queueing_length="13.50" queueing_length_experimental="21.09"/>
            <lane id="E2577_1" queueing_time="31.00" queueing_length="13.50" queueing_length_experimental="13.50"/>
            <lane id="E2577_2" queueing_time="19.00" queueing_length="6.00" queueing_length_experimental="6.00"/>
            <lane id="E2577_3" queueing_time="4.00" queueing_length="6.00" queueing_length_experimental="6.00"/>
        </lanes>
    </data>
    <data timestep="76.00">
        <lanes>
            <lane id="-E0493_0" queueing_time="22.00" queueing_length="6.00" queueing_length_experimental="6.00"/>
            <lane id="-E0493_3" queueing_time="19.00" queueing_length="6.00" queueing_length_experimental="6.00"/>
            <lane id="-E1129_0" queueing_time="0.00" queueing_length="0.00" queueing_length_experimental="6.04"/>
            <lane id="E0_0" queueing_time="15.00" queueing_length="6.00" queueing_length_experimental="6.00"/>
            <lane id="E0_2" queueing_time="19.00" queueing_length="13.50" queueing_length_experimental="13.50"/>
            <lane id="E10_1" queueing_time="25.00" queueing_length="6.00" queueing_length_experimental="6.00"/>
            <lane id="E10_3" queueing_time="10.00" queueing_length="21.03" queueing_length_experimental="21.03"/>
            <lane id="E2577_1" queueing_time="32.00" queueing_length="13.50" queueing_length_experimental="13.50"/>
            <lane id="E2577_2" queueing_time="20.00" queueing_length="6.00" queueing_length_experimental="6.00"/>
            <lane id="E2577_3" queueing_time="5.00" queueing_length="6.00" queueing_length_experimental="6.00"/>
        </lanes>
    </data>
    <data timestep="77.00">
        <lanes>
            <lane id="-E0493_0" queueing_time="23.00" queueing_length="6.00" queueing_length_experimental="6.00"/>
            <lane id="-E0493_3" queueing_time="20.00" queueing_length="6.00" queueing_length_experimental="6.00"/>
            <lane id="-E1129_0" queueing_time="1.00" queueing_length="6.01" queueing_length_experimental="6.01"/>
            <lane id="-E3869_1" queueing_time="0.00" queueing_length="0.00" queueing_length_experimental="6.21"/>
            <lane id="E0_0" queueing_time="16.00" queueing_length="6.00" queueing_length_experimental="6.00"/>
            <lane id="E0_2" queueing_time="20.00" queueing_length="13.50" queueing_length_experimental="13.50"/>
            <lane id="E10_1" queueing_time="26.00" queueing_length="6.00" queueing_length_experimental="6.00"/>
            <lane id="E10_3" queueing_time="11.00" queueing_length="21.01" queueing_length_experimental="21.01"/>
            <lane id="E2577_1" queueing_time="33.00" queueing_length="13.50" queueing_length_experimental="13.50"/>
            <lane id="E2577_2" queueing_time="21.00" queueing_length="6.00" queueing_length_experimental="6.00"/>
            <lane id="E2577_3" queueing_time="6.00" queueing_length="6.00" queueing_length_experimental="6.00"/>
        </lanes>
    </data>
    <data timestep="78.00">
        <lanes>
            <lane id="-E0493_0" queueing_time="24.00" queueing_length="6.00" queueing_length_experimental="6.00"/>
            <lane id="-E0493_3" queueing_time="21.00" queueing_length="6.00" queueing_length_experimental="6.00"/>
            <lane id="-E1129_0" queueing_time="2.00" queueing_length="6.00" queueing_length_experimental="6.00"/>
            <lane id="-E3869_1" queueing_time="0.00" queueing_length="0.00" queueing_length_experimental="6.06"/>
            <lane id="E0_0" queueing_time="17.00" queueing_length="6.00" queueing_length_experimental="6.00"/>
            <lane id="E0_2" queueing_time="21.00" queueing_length="13.50" queueing_length_experimental="13.50"/>
            <lane id="E10_1" queueing_time="27.00" queueing_length="6.00" queueing_length_experimental="6.00"/>
            <lane id="E10_3" queueing_time="12.00" queueing_length="21.00" queueing_length_experimental="21.00"/>
            <lane id="E2577_1" queueing_time="34.00" queueing_length="13.50" queueing_length_experimental="13.50"/>
            <lane id="E2577_2" queueing_time="22.00" queueing_length="6.00" queueing_length_experimental="6.00"/>
            <lane id="E2577_3" queueing_time="7.00" queueing_length="6.00" queueing_length_experimental="6.00"/>
        </lanes>
    </data>
    <data timestep="79.00">