<?xml version="1.0" encoding="UTF-8"?>

<!-- generated on 2024-06-30 01:29:54 by Eclipse SUMO sumo Version 1.19.0
<configuration xmlns:xsi="http://www.w3.org/2001/XMLSchema-instance" xsi:noNamespaceSchemaLocation="http://sumo.dlr.de/xsd/sumoConfiguration.xsd">

    <input>
        <net-file value="../现状仿真/3.4晚高峰/4.net.xml"/>
        <route-files value="../现状仿真/3.4晚高峰/v_vehs.rou.xml,../现状仿真/3.4晚高峰/pedestrian.rou.xml,../现状仿真/3.4晚高峰/bus.rou.xml"/>
        <additional-files value="../现状仿真/3.4晚高峰/det_e3.add.xml,../现状仿真/3.4晚高峰/det_e2.add.xml,../现状仿真/3.4晚高峰/busstop_def.add.xml"/>
    </input>

    <output>
        <write-license value="false"/>
        <output-prefix value="OUTPUT-"/>
        <precision value="2"/>
        <human-readable-time value="false"/>
        <emission-output value="../现状仿真/3.4晚高峰/output/data_emission.xml"/>
        <emission-output.precision value="2"/>
        <queue-output value="../现状仿真/3.4晚高峰/output/data_Queue.xml"/>
        <queue-output.period value="300"/>
        <summary-output value="../现状仿真/3.4晚高峰/output/data_summary.xml"/>
        <summary-output.period value="300"/>
        <person-summary-output value="../现状仿真/3.4晚高峰/output/data_person_summary.xml"/>
        <personinfo-output value="../现状仿真/3.4晚高峰/output/data_personinfo.xml"/>
        <collision-output value="../现状仿真/3.4晚高峰/output/data_collision.xml"/>
        <edgedata-output value="../现状仿真/3.4晚高峰/output/data_edges.xml"/>
        <lanedata-output value="../现状仿真/3.4晚高峰/output/data_lanes.xml"/>
        <statistic-output value="../现状仿真/3.4晚高峰/output/data_statistic.xml"/>
    </output>

    <time>
        <begin value="0"/>
        <end value="3600"/>
        <step-length value="1"/>
    </time>

    <processing>
        <no-internal-links value="false"/>
        <ignore-route-errors value="true"/>
        <collision.action value="teleport"/>
        <intermodal-collision.action value="warn"/>
        <collision.stoptime value="0"/>
        <intermodal-collision.stoptime value="0"/>
        <collision.check-junctions value="false"/>
        <max-num-vehicles value="-1"/>
        <max-num-teleports value="-1"/>
        <time-to-teleport value="300"/>
        <time-to-teleport.remove value="false"/>
        <waiting-time-memory value="100"/>
        <max-depart-delay value="-1"/>
        <random-depart-offset value="0"/>
        <lanechange.duration value="0"/>
        <lanechange.overtake-right value="false"/>
        <tls.all-off value="false"/>
        <tls.yellow.min-decel value="3"/>
    </processing>

    <routing>
        <routing-algorithm value="dijkstra"/>
    </routing>

    <report>
        <verbose value="true"/>
        <no-warnings value="true"/>
        <log value="../现状仿真/3.4晚高峰/output/data_log.xml"/>
        <no-step-log value="true"/>
        <step-log.period value="300"/>
    </report>

    <emissions>
        <device.emissions.period value="300"/>
    </emissions>

    <traci_server>
        <remote-port value="56041"/>
    </traci_server>

    <mesoscopic>
        <mesosim value="false"/>
    </mesoscopic>

    <random_number>
        <random value="false"/>
        <seed value="23423"/>
    </random_number>

    <gui_only>
        <gui-settings-file value="../现状仿真/3.4晚高峰/viewsettings.xml"/>
        <start value="true"/>
        <demo value="false"/>
        <window-size value="800,600"/>
        <window-pos value="100,100"/>
    </gui_only>

</configuration>
-->

<emission-export xmlns:xsi="http://www.w3.org/2001/XMLSchema-instance" xsi:noNamespaceSchemaLocation="http://sumo.dlr.de/xsd/emission_file.xsd">
    <timestep time="0.00">
        <vehicle id="E2W_693.0" eclass="HBEFA3/Bus" CO2="5286.11" CO="20.17" HC="4.85" NOx="60.75" PMx="2.01" fuel="1671.11" electricity="0.00" noise="67.11" route="693_2" type="BUS_A" waiting="0.00" lane="E3_2" pos="12.10" speed="0.00" angle="270.00" x="289.63" y="383.75"/>
        <vehicle id="N2S_92.0" eclass="HBEFA3/Bus" CO2="5286.11" CO="20.17" HC="4.85" NOx="60.75" PMx="2.01" fuel="1671.11" electricity="0.00" noise="67.11" route="92_1" type="BUS_B" waiting="0.00" lane="E10_2" pos="12.10" speed="0.00" angle="180.05" x="-20.81" y="663.75"/>
        <vehicle id="chegongzhuangxilu_east_T2.0" eclass="HBEFA3/PC_G_EU4" CO2="2624.72" CO="164.78" HC="0.81" NOx="1.20" PMx="0.07" fuel="837.22" electricity="0.00" noise="55.94" route="!chegongzhuangxilu_east_T2.0" type="vt_car" waiting="0.00" lane="E3_4" pos="5.10" speed="0.00" angle="270.00" x="296.63" y="374.25"/>
        <vehicle id="chegongzhuangxilu_west_T2.0" eclass="HBEFA3/PC_G_EU4" CO2="2624.72" CO="164.78" HC="0.81" NOx="1.20" PMx="0.07" fuel="837.22" electricity="0.00" noise="55.94" route="!chegongzhuangxilu_west_T2.0" type="vt_car" waiting="0.00" lane="E8_3" pos="5.10" speed="0.00" angle="90.00" x="-297.30" y="355.60"/>
        <vehicle id="fuchenglu_east_T2.0" eclass="HBEFA3/PC_G_EU4" CO2="2624.72" CO="164.78" HC="0.81" NOx="1.20" PMx="0.07" fuel="837.22" electricity="0.00" noise="55.94" route="!fuchenglu_east_T2.0" type="vt_car" waiting="0.00" lane="E33_3" pos="5.10" speed="0.00" angle="274.18" x="301.27" y="-638.47"/>
        <vehicle id="fuchenglu_west_T2.0" eclass="HBEFA3/PC_G_EU4" CO2="2624.72" CO="164.78" HC="0.81" NOx="1.20" PMx="0.07" fuel="837.22" electricity="0.00" noise="55.94" route="!fuchenglu_west_T2.0" type="vt_car" waiting="0.00" lane="E37_2" pos="5.10" speed="0.00" angle="94.20" x="-301.10" y="-626.57"/>
        <vehicle id="shoutinanlu_north_T2.0" eclass="HBEFA3/PC_G_EU4" CO2="2624.72" CO="164.78" HC="0.81" NOx="1.20" PMx="0.07" fuel="837.22" electricity="0.00" noise="55.94" route="!shoutinanlu_north_T2.0" type="vt_car" waiting="0.00" lane="E10_5" pos="5.10" speed="0.00" angle="180.05" x="-9.30" y="670.74"/>
        <vehicle id="zengguanglu_east_T2.0" eclass="HBEFA3/PC_G_EU4" CO2="2624.72" CO="164.78" HC="0.81" NOx="1.20" PMx="0.07" fuel="837.22" electricity="0.00" noise="55.94" route="!zengguanglu_east_T2.0" type="vt_car" waiting="0.00" lane="E19_2" pos="5.10" speed="0.00" angle="269.94" x="297.68" y="-106.02"/>
        <vehicle id="zengguanglu_west_T2.0" eclass="HBEFA3/PC_G_EU4" CO2="2624.72" CO="164.78" HC="0.81" NOx="1.20" PMx="0.07" fuel="837.22" electricity="0.00" noise="55.94" route="!zengguanglu_west_T2.0" type="vt_car" waiting="0.00" lane="E23_2" pos="5.10" speed="0.00" angle="90.00" x="-296.74" y="-110.13"/>
    </timestep>
    <timestep time="300.00">
        <vehicle id="N2S_61.0" eclass="HBEFA3/Bus" CO2="5286.11" CO="20.17" HC="4.85" NOx="60.75" PMx="2.01" fuel="1671.11" electricity="0.00" noise="67.11" route="61_1" type="BUS_B" waiting="73.00" lane="E29_3" pos="374.41" speed="0.00" angle="180.00" x="-14.01" y="-497.83"/>
        <vehicle id="S2N_61.0" eclass="HBEFA3/Bus" CO2="5286.11" CO="20.17" HC="4.85" NOx="60.75" PMx="2.01" fuel="1671.11" electricity="0.00" noise="67.11" route="61_2" type="BUS_A" waiting="70.00" lane="E14_7" pos="23.18" speed="0.00" angle="359.88" x="1.58" y="317.49"/>
        <vehicle id="S2N_92.0" eclass="HBEFA3/Bus" CO2="5286.11" CO="20.17" HC="4.85" NOx="60.75" PMx="2.01" fuel="1671.11" electricity="0.00" noise="67.11" route="92_2" type="BUS_A" waiting="270.00" lane="E37_2" pos="183.25" speed="0.00" angle="94.20" x="-123.44" y="-639.61"/>
        <vehicle id="W2E_73.0" eclass="HBEFA3/Bus" CO2="5286.11" CO="20.17" HC="4.85" NOx="60.75" PMx="2.01" fuel="1671.11" electricity="0.00" noise="67.11" route="73_1" type="BUS_B" waiting="273.00" lane="E37_2" pos="115.00" speed="0.00" angle="94.20" x="-191.50" y="-634.62"/>
        <vehicle id="chegongzhuangxilu_east_T2.16" eclass="HBEFA3/PC_G_EU4" CO2="2624.72" CO="164.78" HC="0.81" NOx="1.20" PMx="0.07" fuel="837.22" electricity="0.00" noise="55.94" route="!chegongzhuangxilu_east_T2.16" type="vt_car" waiting="122.00" lane="E5_4" pos="66.80" speed="0.00" angle="269.48" x="32.96" y="373.90"/>
        <vehicle id="chegongzhuangxilu_east_T2.17" eclass="HBEFA3/PC_G_EU4" CO2="3151.74" CO="11.48" HC="0.12" NOx="1.09" PMx="0.03" fuel="1005.27" electricity="0.00" noise="65.05" route="!chegongzhuangxilu_east_T2.17" type="vt_car" waiting="0.00" lane="E35_4" pos="148.20" speed="13.77" angle="274.21" x="-178.48" y="-607.03"/>
        <vehicle id="chegongzhuangxilu_east_T2.18" eclass="HBEFA3/PC_G_EU4" CO2="2624.72" CO="164.78" HC="0.81" NOx="1.20" PMx="0.07" fuel="837.22" electricity="0.00" noise="55.94" route="!chegongzhuangxilu_east_T2.18" type="vt_car" waiting="102.00" lane="E5_5" pos="66.80" speed="0.00" angle="269.48" x="32.95" y="370.90"/>
        <vehicle id="chegongzhuangxilu_east_T2.20" eclass="HBEFA3/PC_G_EU4" CO2="2624.72" CO="164.78" HC="0.81" NOx="1.20" PMx="0.07" fuel="837.22" electricity="0.00" noise="55.94" route="!chegongzhuangxilu_east_T2.20" type="vt_car" waiting="81.00" lane="E5_6" pos="66.80" speed="0.00" angle="269.48" x="32.93" y="367.90"/>
        <vehicle id="chegongzhuangxilu_east_T2.21" eclass="HBEFA3/PC_G_EU4" CO2="2624.72" CO="164.78" HC="0.81" NOx="1.20" PMx="0.07" fuel="837.22" electricity="0.00" noise="55.94" route="!chegongzhuangxilu_east_T2.21" type="vt_car" waiting="76.00" lane="E5_5" pos="59.30" speed="0.00" angle="269.48" x="40.46" y="370.97"/>
        <vehicle id="chegongzhuangxilu_east_T2.22" eclass="HBEFA3/PC_G_EU4" CO2="2624.72" CO="164.78" HC="0.81" NOx="1.20" PMx="0.07" fuel="837.22" electricity="0.00" noise="55.94" route="!chegongzhuangxilu_east_T2.22" type="vt_car" waiting="65.00" lane="E5_7" pos="67.02" speed="0.00" angle="269.48" x="32.71" y="364.90"/>
        <vehicle id="chegongzhuangxilu_east_T2.23" eclass="HBEFA3/PC_G_EU4" CO2="2624.72" CO="164.78" HC="0.81" NOx="1.20" PMx="0.07" fuel="837.22" electricity="0.00" noise="55.94" route="!chegongzhuangxilu_east_T2.23" type="vt_car" waiting="56.00" lane="E5_5" pos="51.80" speed="0.00" angle="269.48" x="47.97" y="371.04"/>
        <vehicle id="chegongzhuangxilu_east_T2.24" eclass="HBEFA3/PC_G_EU4" CO2="2624.72" CO="164.78" HC="0.81" NOx="1.20" PMx="0.07" fuel="837.22" electricity="0.00" noise="55.94" route="!chegongzhuangxilu_east_T2.24" type="vt_car" waiting="46.00" lane="E5_5" pos="44.30" speed="0.00" angle="269.48" x="55.48" y="371.10"/>
        <vehicle id="chegongzhuangxilu_east_T2.26" eclass="HBEFA3/PC_G_EU4" CO2="2624.72" CO="164.78" HC="0.81" NOx="1.20" PMx="0.07" fuel="837.22" electricity="0.00" noise="55.94" route="!chegongzhuangxilu_east_T2.26" type="vt_car" waiting="30.00" lane="E5_5" pos="36.79" speed="0.00" angle="269.48" x="62.99" y="371.17"/>
        <vehicle id="chegongzhuangxilu_east_T2.27" eclass="HBEFA3/PC_G_EU4" CO2="2624.72" CO="164.78" HC="0.81" NOx="1.20" PMx="0.07" fuel="837.22" electricity="0.00" noise="55.94" route="!chegongzhuangxilu_east_T2.27" type="vt_car" waiting="18.00" lane="E5_7" pos="59.51" speed="0.00" angle="269.48" x="40.23" y="364.97"/>
        <vehicle id="chegongzhuangxilu_east_T2.28" eclass="HBEFA3/PC_G_EU4" CO2="2624.72" CO="164.78" HC="0.81" NOx="1.20" PMx="0.07" fuel="837.22" electricity="0.00" noise="55.94" route="!chegongzhuangxilu_east_T2.28" type="vt_car" waiting="9.00" lane="E5_5" pos="29.29" speed="0.00" angle="269.48" x="70.50" y="371.24"/>
        <vehicle id="chegongzhuangxilu_east_T2.29" eclass="HBEFA3/PC_G_EU4" CO2="2618.20" CO="164.00" HC="0.81" NOx="1.20" PMx="0.07" fuel="835.14" electricity="0.00" noise="55.10" route="!chegongzhuangxilu_east_T2.29" type="vt_car" waiting="1.00" lane="E5_5" pos="21.79" speed="0.04" angle="269.48" x="78.01" y="371.31"/>
        <vehicle id="chegongzhuangxilu_east_T2.30" eclass="HBEFA3/PC_G_EU4" CO2="5290.79" CO="49.77" HC="0.35" NOx="2.08" PMx="0.09" fuel="1687.51" electricity="0.00" noise="67.12" route="!chegongzhuangxilu_east_T2.30" type="vt_car" waiting="0.00" lane="E4_6" pos="9.34" speed="14.77" angle="269.78" x="144.64" y="366.19"/>
        <vehicle id="chegongzhuangxilu_east_T2.31" eclass="HBEFA3/PC_G_EU4" CO2="5940.60" CO="115.59" HC="0.67" NOx="2.55" PMx="0.12" fuel="1894.78" electricity="0.00" noise="67.38" route="!chegongzhuangxilu_east_T2.31" type="vt_car" waiting="0.00" lane="E3_4" pos="26.69" speed="8.26" angle="270.00" x="275.04" y="374.25"/>
        <vehicle id="chegongzhuangxilu_west_T2.10" eclass="HBEFA3/PC_G_EU4" CO2="2624.72" CO="164.78" HC="0.81" NOx="1.20" PMx="0.07" fuel="837.22" electricity="0.00" noise="55.94" route="!chegongzhuangxilu_west_T2.10" type="vt_car" waiting="12.00" lane="E17_5" pos="41.84" speed="0.00" angle="180.12" x="-8.32" y="-76.72"/>
        <vehicle id="chegongzhuangxilu_west_T2.11" eclass="HBEFA3/PC_G_EU4" CO2="2624.72" CO="164.78" HC="0.81" NOx="1.20" PMx="0.07" fuel="837.22" electricity="0.00" noise="55.94" route="!chegongzhuangxilu_west_T2.11" type="vt_car" waiting="31.00" lane="E9_4" pos="34.42" speed="0.00" angle="90.15" x="-32.54" y="359.01"/>
        <vehicle id="chegongzhuangxilu_west_T2.12" eclass="HBEFA3/PC_G_EU4" CO2="2624.72" CO="164.78" HC="0.81" NOx="1.20" PMx="0.07" fuel="837.22" electricity="0.00" noise="55.94" route="!chegongzhuangxilu_west_T2.12" type="vt_car" waiting="8.00" lane="E9_3" pos="26.92" speed="0.00" angle="90.15" x="-40.02" y="355.53"/>
        <vehicle id="chegongzhuangxilu_west_T2.13" eclass="HBEFA3/PC_G_EU4" CO2="2624.38" CO="0.00" HC="0.05" NOx="0.83" PMx="0.02" fuel="837.07" electricity="0.00" noise="65.01" route="!chegongzhuangxilu_west_T2.13" type="vt_car" waiting="0.00" lane="E8_5" pos="165.15" speed="14.30" angle="90.00" x="-137.25" y="362.60"/>
        <vehicle id="chegongzhuangxilu_west_T2.2" eclass="HBEFA3/PC_G_EU4" CO2="6296.05" CO="134.10" HC="0.76" NOx="2.74" PMx="0.13" fuel="2008.15" electricity="0.00" noise="68.73" route="!chegongzhuangxilu_west_T2.2" type="vt_car" waiting="0.00" lane=":J25_19_0" pos="8.15" speed="7.26" angle="172.91" x="-6.63" y="-598.92"/>
        <vehicle id="chegongzhuangxilu_west_T2.4" eclass="HBEFA3/PC_G_EU4" CO2="8064.25" CO="141.05" HC="0.84" NOx="3.50" PMx="0.17" fuel="2572.10" electricity="0.00" noise="70.25" route="!chegongzhuangxilu_west_T2.4" type="vt_car" waiting="0.00" lane=":J25_19_1" pos="29.23" speed="10.08" angle="153.99" x="2.31" y="-619.10"/>
        <vehicle id="chegongzhuangxilu_west_T2.7" eclass="HBEFA3/PC_G_EU4" CO2="4392.34" CO="58.90" HC="0.37" NOx="1.75" PMx="0.07" fuel="1400.96" electricity="0.00" noise="64.90" route="!chegongzhuangxilu_west_T2.7" type="vt_car" waiting="0.00" lane=":J25_15_3" pos="12.25" speed="10.81" angle="185.25" x="-11.76" y="-602.80"/>
        <vehicle id="chegongzhuangxilu_west_T2.8" eclass="HBEFA3/PC_G_EU4" CO2="8109.19" CO="146.76" HC="0.86" NOx="3.54" PMx="0.17" fuel="2586.44" electricity="0.00" noise="70.61" route="!chegongzhuangxilu_west_T2.8" type="vt_car" waiting="0.00" lane=":J25_19_2" pos="25.06" speed="9.57" angle="153.71" x="4.10" y="-615.40"/>
        <vehicle id="chegongzhuangxilu_west_T2.9" eclass="HBEFA3/PC_G_EU4" CO2="2624.72" CO="164.78" HC="0.81" NOx="1.20" PMx="0.07" fuel="837.22" electricity="0.00" noise="55.94" route="!chegongzhuangxilu_west_T2.9" type="vt_car" waiting="74.00" lane="E9_3" pos="34.42" speed="0.00" angle="90.15" x="-32.53" y="355.51"/>
        <vehicle id="fuchenglu_east_T2.17" eclass="HBEFA3/PC_G_EU4" CO2="2624.72" CO="164.78" HC="0.81" NOx="1.20" PMx="0.07" fuel="837.22" electricity="0.00" noise="55.94" route="!fuchenglu_east_T2.17" type="vt_car" waiting="19.00" lane="E34_4" pos="81.46" speed="0.00" angle="274.23" x="31.74" y="-621.15"/>
        <vehicle id="fuchenglu_east_T2.18" eclass="HBEFA3/PC_G_EU4" CO2="2624.72" CO="164.78" HC="0.81" NOx="1.20" PMx="0.07" fuel="837.22" electricity="0.00" noise="55.94" route="!fuchenglu_east_T2.18" type="vt_car" waiting="5.00" lane="E34_5" pos="81.46" speed="0.00" angle="274.23" x="31.71" y="-624.16"/>
        <vehicle id="fuchenglu_east_T2.19" eclass="HBEFA3/PC_G_EU4" CO2="1566.03" CO="0.00" HC="0.00" NOx="0.33" PMx="0.00" fuel="499.51" electricity="0.00" noise="64.43" route="!fuchenglu_east_T2.19" type="vt_car" waiting="0.00" lane="E33_3" pos="184.28" speed="14.35" angle="274.18" x="122.57" y="-625.40"/>
        <vehicle id="fuchenglu_east_T2.20" eclass="HBEFA3/PC_G_EU4" CO2="3053.51" CO="147.57" HC="0.74" NOx="1.36" PMx="0.07" fuel="973.98" electricity="0.00" noise="63.25" route="!fuchenglu_east_T2.20" type="vt_car" waiting="0.00" lane="E33_4" pos="6.63" speed="1.53" angle="274.18" x="299.46" y="-642.35"/>
        <vehicle id="fuchenglu_east_T2.7" eclass="HBEFA3/PC_G_EU4" CO2="2624.72" CO="164.78" HC="0.81" NOx="1.20" PMx="0.07" fuel="837.22" electricity="0.00" noise="55.94" route="!fuchenglu_east_T2.7" type="vt_car" waiting="89.00" lane="E14_7" pos="38.18" speed="0.00" angle="359.88" x="1.55" y="332.52"/>
        <vehicle id="fuchenglu_west_T2.1" eclass="HBEFA3/PC_G_EU4" CO2="2624.72" CO="164.78" HC="0.81" NOx="1.20" PMx="0.07" fuel="837.22" electricity="0.00" noise="55.94" route="!fuchenglu_west_T2.1" type="vt_car" waiting="270.00" lane="E37_2" pos="100.50" speed="0.00" angle="94.20" x="-205.97" y="-633.55"/>
        <vehicle id="fuchenglu_west_T2.10" eclass="HBEFA3/PC_G_EU4" CO2="2624.72" CO="164.78" HC="0.81" NOx="1.20" PMx="0.07" fuel="837.22" electricity="0.00" noise="55.94" route="!fuchenglu_west_T2.10" type="vt_car" waiting="119.00" lane="E37_2" pos="78.00" speed="0.00" angle="94.20" x="-228.41" y="-631.91"/>
        <vehicle id="fuchenglu_west_T2.11" eclass="HBEFA3/PC_G_EU4" CO2="2624.72" CO="164.78" HC="0.81" NOx="1.20" PMx="0.07" fuel="837.22" electricity="0.00" noise="55.94" route="!fuchenglu_west_T2.11" type="vt_car" waiting="102.00" lane="E37_2" pos="70.49" speed="0.00" angle="94.20" x="-235.89" y="-631.36"/>
        <vehicle id="fuchenglu_west_T2.13" eclass="HBEFA3/PC_G_EU4" CO2="0.00" CO="0.00" HC="0.00" NOx="0.00" PMx="0.00" fuel="0.00" electricity="0.00" noise="62.71" route="!fuchenglu_west_T2.13" type="vt_car" waiting="0.00" lane="E27_4" pos="275.36" speed="13.21" angle="359.86" x="9.79" y="-317.11"/>
        <vehicle id="fuchenglu_west_T2.15" eclass="HBEFA3/PC_G_EU4" CO2="2624.72" CO="164.78" HC="0.81" NOx="1.20" PMx="0.07" fuel="837.22" electricity="0.00" noise="55.94" route="!fuchenglu_west_T2.15" type="vt_car" waiting="15.00" lane="E38_4" pos="88.87" speed="0.00" angle="94.39" x="-31.32" y="-635.65"/>
        <vehicle id="fuchenglu_west_T2.16" eclass="HBEFA3/PC_G_EU4" CO2="2621.02" CO="164.32" HC="0.81" NOx="1.20" PMx="0.07" fuel="836.04" electricity="0.00" noise="55.27" route="!fuchenglu_west_T2.16" type="vt_car" waiting="1.00" lane="E38_4" pos="81.35" speed="0.02" angle="94.39" x="-38.79" y="-635.08"/>
        <vehicle id="fuchenglu_west_T2.17" eclass="HBEFA3/PC_G_EU4" CO2="2622.21" CO="164.50" HC="0.81" NOx="1.20" PMx="0.07" fuel="836.42" electricity="0.00" noise="54.76" route="!fuchenglu_west_T2.17" type="vt_car" waiting="1.00" lane="E37_2" pos="62.99" speed="0.01" angle="94.20" x="-243.38" y="-630.81"/>
        <vehicle id="fuchenglu_west_T2.2" eclass="HBEFA3/PC_G_EU4" CO2="2624.72" CO="164.78" HC="0.81" NOx="1.20" PMx="0.07" fuel="837.22" electricity="0.00" noise="55.94" route="!fuchenglu_west_T2.2" type="vt_car" waiting="88.00" lane="E14_7" pos="30.68" speed="0.00" angle="359.88" x="1.57" y="325.00"/>
        <vehicle id="fuchenglu_west_T2.6" eclass="HBEFA3/PC_G_EU4" CO2="2624.72" CO="164.78" HC="0.81" NOx="1.20" PMx="0.07" fuel="837.22" electricity="0.00" noise="55.94" route="!fuchenglu_west_T2.6" type="vt_car" waiting="9.00" lane="E29_4" pos="359.91" speed="0.00" angle="180.00" x="-10.26" y="-483.33"/>
        <vehicle id="fuchenglu_west_T2.8" eclass="HBEFA3/PC_G_EU4" CO2="2624.72" CO="164.78" HC="0.81" NOx="1.20" PMx="0.07" fuel="837.22" electricity="0.00" noise="55.94" route="!fuchenglu_west_T2.8" type="vt_car" waiting="151.00" lane="E37_2" pos="93.00" speed="0.00" angle="94.20" x="-213.45" y="-633.01"/>
        <vehicle id="fuchenglu_west_T2.9" eclass="HBEFA3/PC_G_EU4" CO2="2624.72" CO="164.78" HC="0.81" NOx="1.20" PMx="0.07" fuel="837.22" electricity="0.00" noise="55.94" route="!fuchenglu_west_T2.9" type="vt_car" waiting="135.00" lane="E37_2" pos="85.50" speed="0.00" angle="94.20" x="-220.93" y="-632.46"/>
        <vehicle id="shoutinanlu_north_T2.10" eclass="HBEFA3/PC_G_EU4" CO2="2624.72" CO="164.78" HC="0.81" NOx="1.20" PMx="0.07" fuel="837.22" electricity="0.00" noise="55.94" route="!shoutinanlu_north_T2.10" type="vt_car" waiting="177.00" lane="E13_8" pos="57.27" speed="0.00" angle="180.07" x="-2.36" y="397.39"/>
        <vehicle id="shoutinanlu_north_T2.11" eclass="HBEFA3/PC_G_EU4" CO2="2624.72" CO="164.78" HC="0.81" NOx="1.20" PMx="0.07" fuel="837.22" electricity="0.00" noise="55.94" route="!shoutinanlu_north_T2.11" type="vt_car" waiting="170.00" lane="E13_8" pos="49.77" speed="0.00" angle="180.07" x="-2.35" y="404.56"/>
        <vehicle id="shoutinanlu_north_T2.12" eclass="HBEFA3/PC_G_EU4" CO2="2624.72" CO="164.78" HC="0.81" NOx="1.20" PMx="0.07" fuel="837.22" electricity="0.00" noise="55.94" route="!shoutinanlu_north_T2.12" type="vt_car" waiting="15.00" lane="E17_7" pos="49.34" speed="0.00" angle="180.12" x="-2.33" y="-84.24"/>
        <vehicle id="shoutinanlu_north_T2.13" eclass="HBEFA3/PC_G_EU4" CO2="2624.72" CO="164.78" HC="0.81" NOx="1.20" PMx="0.07" fuel="837.22" electricity="0.00" noise="55.94" route="!shoutinanlu_north_T2.13" type="vt_car" waiting="17.00" lane="E17_4" pos="49.34" speed="0.00" angle="180.12" x="-11.33" y="-84.21"/>
        <vehicle id="shoutinanlu_north_T2.14" eclass="HBEFA3/PC_G_EU4" CO2="2624.72" CO="164.78" HC="0.81" NOx="1.20" PMx="0.07" fuel="837.22" electricity="0.00" noise="55.94" route="!shoutinanlu_north_T2.14" type="vt_car" waiting="19.00" lane="E17_5" pos="49.34" speed="0.00" angle="180.12" x="-8.33" y="-84.22"/>
        <vehicle id="shoutinanlu_north_T2.15" eclass="HBEFA3/PC_G_EU4" CO2="2624.72" CO="164.78" HC="0.81" NOx="1.20" PMx="0.07" fuel="837.22" electricity="0.00" noise="55.94" route="!shoutinanlu_north_T2.15" type="vt_car" waiting="12.00" lane="E17_6" pos="49.34" speed="0.00" angle="180.12" x="-5.33" y="-84.23"/>
        <vehicle id="shoutinanlu_north_T2.17" eclass="HBEFA3/PC_G_EU4" CO2="5250.46" CO="55.77" HC="0.38" NOx="2.09" PMx="0.09" fuel="1674.65" electricity="0.00" noise="66.68" route="!shoutinanlu_north_T2.17" type="vt_car" waiting="0.00" lane="E25_2" pos="147.91" speed="13.59" angle="270.03" x="-233.73" y="-105.67"/>
        <vehicle id="shoutinanlu_north_T2.18" eclass="HBEFA3/PC_G_EU4" CO2="2624.71" CO="164.78" HC="0.81" NOx="1.20" PMx="0.07" fuel="837.22" electricity="0.00" noise="55.94" route="!shoutinanlu_north_T2.18" type="vt_car" waiting="11.00" lane="E17_4" pos="34.34" speed="0.00" angle="180.12" x="-11.30" y="-69.21"/>
        <vehicle id="shoutinanlu_north_T2.20" eclass="HBEFA3/PC_G_EU4" CO2="2624.72" CO="164.78" HC="0.81" NOx="1.20" PMx="0.07" fuel="837.22" electricity="0.00" noise="55.94" route="!shoutinanlu_north_T2.20" type="vt_car" waiting="15.00" lane="E17_6" pos="56.84" speed="0.00" angle="180.12" x="-5.35" y="-91.73"/>
        <vehicle id="shoutinanlu_north_T2.22" eclass="HBEFA3/PC_G_EU4" CO2="2624.72" CO="164.78" HC="0.81" NOx="1.20" PMx="0.07" fuel="837.22" electricity="0.00" noise="55.94" route="!shoutinanlu_north_T2.22" type="vt_car" waiting="5.00" lane="E17_6" pos="41.84" speed="0.00" angle="180.12" x="-5.32" y="-76.73"/>
        <vehicle id="shoutinanlu_north_T2.23" eclass="HBEFA3/PC_G_EU4" CO2="2624.72" CO="164.78" HC="0.81" NOx="1.20" PMx="0.07" fuel="837.22" electricity="0.00" noise="55.94" route="!shoutinanlu_north_T2.23" type="vt_car" waiting="14.00" lane="E17_4" pos="41.84" speed="0.00" angle="180.12" x="-11.32" y="-76.71"/>
        <vehicle id="shoutinanlu_north_T2.27" eclass="HBEFA3/PC_G_EU4" CO2="3527.78" CO="21.09" HC="0.18" NOx="1.28" PMx="0.04" fuel="1125.20" electricity="0.00" noise="65.17" route="!shoutinanlu_north_T2.27" type="vt_car" waiting="0.00" lane="E16_3" pos="271.54" speed="13.47" angle="179.97" x="-13.91" y="61.85"/>
        <vehicle id="shoutinanlu_north_T2.28" eclass="HBEFA3/PC_G_EU4" CO2="3093.77" CO="14.87" HC="0.14" NOx="1.08" PMx="0.03" fuel="986.78" electricity="0.00" noise="64.60" route="!shoutinanlu_north_T2.28" type="vt_car" waiting="0.00" lane="E16_3" pos="144.58" speed="13.06" angle="179.97" x="-13.97" y="188.79"/>
        <vehicle id="shoutinanlu_north_T2.29" eclass="HBEFA3/PC_G_EU4" CO2="0.00" CO="0.00" HC="0.00" NOx="0.00" PMx="0.00" fuel="0.00" electricity="0.00" noise="62.38" route="!shoutinanlu_north_T2.29" type="vt_car" waiting="0.00" lane="E16_4" pos="12.55" speed="12.10" angle="179.97" x="-10.28" y="320.86"/>
        <vehicle id="shoutinanlu_north_T2.3" eclass="HBEFA3/PC_G_EU4" CO2="2624.72" CO="164.78" HC="0.81" NOx="1.20" PMx="0.07" fuel="837.22" electricity="0.00" noise="55.94" route="!shoutinanlu_north_T2.3" type="vt_car" waiting="246.00" lane="E13_3" pos="57.27" speed="0.00" angle="180.12" x="-18.09" y="397.38"/>
        <vehicle id="shoutinanlu_north_T2.30" eclass="HBEFA3/PC_G_EU4" CO2="0.00" CO="0.00" HC="0.00" NOx="0.00" PMx="0.00" fuel="0.00" electricity="0.00" noise="63.73" route="!shoutinanlu_north_T2.30" type="vt_car" waiting="0.00" lane="E13_2" pos="23.33" speed="14.07" angle="180.09" x="-21.03" y="436.39"/>
        <vehicle id="shoutinanlu_north_T2.31" eclass="HBEFA3/PC_G_EU4" CO2="0.00" CO="0.00" HC="0.00" NOx="0.00" PMx="0.00" fuel="0.00" electricity="0.00" noise="63.00" route="!shoutinanlu_north_T2.31" type="vt_car" waiting="0.00" lane="E10_5" pos="114.26" speed="12.71" angle="180.05" x="-9.41" y="561.58"/>
        <vehicle id="shoutinanlu_north_T2.32" eclass="HBEFA3/PC_G_EU4" CO2="4302.83" CO="141.25" HC="0.74" NOx="1.90" PMx="0.09" fuel="1372.43" electricity="0.00" noise="66.96" route="!shoutinanlu_north_T2.32" type="vt_car" waiting="0.00" lane="E10_2" pos="10.10" speed="3.59" angle="180.05" x="-20.81" y="665.75"/>
        <vehicle id="shoutinanlu_north_T2.5" eclass="HBEFA3/PC_G_EU4" CO2="2624.72" CO="164.78" HC="0.81" NOx="1.20" PMx="0.07" fuel="837.22" electricity="0.00" noise="55.94" route="!shoutinanlu_north_T2.5" type="vt_car" waiting="24.00" lane="E17_4" pos="56.84" speed="0.00" angle="180.12" x="-11.35" y="-91.71"/>
        <vehicle id="shoutinanlu_north_T2.6" eclass="HBEFA3/PC_G_EU4" CO2="2624.72" CO="164.78" HC="0.81" NOx="1.20" PMx="0.07" fuel="837.22" electricity="0.00" noise="55.94" route="!shoutinanlu_north_T2.6" type="vt_car" waiting="17.00" lane="E17_7" pos="56.84" speed="0.00" angle="180.12" x="-2.35" y="-91.74"/>
        <vehicle id="shoutinanlu_north_T2.7" eclass="HBEFA3/PC_G_EU4" CO2="2624.72" CO="164.78" HC="0.81" NOx="1.20" PMx="0.07" fuel="837.22" electricity="0.00" noise="55.94" route="!shoutinanlu_north_T2.7" type="vt_car" waiting="22.00" lane="E17_5" pos="56.84" speed="0.00" angle="180.12" x="-8.35" y="-91.72"/>
        <vehicle id="shoutinanlu_north_T2.9" eclass="HBEFA3/PC_G_EU4" CO2="2624.72" CO="164.78" HC="0.81" NOx="1.20" PMx="0.07" fuel="837.22" electricity="0.00" noise="55.94" route="!shoutinanlu_north_T2.9" type="vt_car" waiting="189.00" lane="E13_7" pos="57.27" speed="0.00" angle="180.06" x="-5.88" y="397.38"/>
        <vehicle id="zengguanglu_east_T2.1" eclass="HBEFA3/PC_G_EU4" CO2="2624.72" CO="164.78" HC="0.81" NOx="1.20" PMx="0.07" fuel="837.22" electricity="0.00" noise="55.94" route="!zengguanglu_east_T2.1" type="vt_car" waiting="247.00" lane="E18_2" pos="75.30" speed="0.00" angle="269.96" x="32.40" y="-105.01"/>
        <vehicle id="zengguanglu_east_T2.10" eclass="HBEFA3/PC_G_EU4" CO2="2624.72" CO="164.78" HC="0.81" NOx="1.20" PMx="0.07" fuel="837.22" electricity="0.00" noise="55.94" route="!zengguanglu_east_T2.10" type="vt_car" waiting="9.00" lane="E18_2" pos="60.30" speed="0.00" angle="269.96" x="47.40" y="-105.00"/>
        <vehicle id="zengguanglu_east_T2.11" eclass="HBEFA3/PC_G_EU4" CO2="0.00" CO="0.00" HC="0.00" NOx="0.00" PMx="0.00" fuel="0.00" electricity="0.00" noise="51.10" route="!zengguanglu_east_T2.11" type="vt_car" waiting="0.00" lane="E18_3" pos="74.82" speed="5.44" angle="269.96" x="32.91" y="-108.01"/>
        <vehicle id="zengguanglu_east_T2.5" eclass="HBEFA3/PC_G_EU4" CO2="7341.85" CO="126.40" HC="0.75" NOx="3.16" PMx="0.15" fuel="2341.70" electricity="0.00" noise="69.11" route="!zengguanglu_east_T2.5" type="vt_car" waiting="0.00" lane=":J25_19_0" pos="28.62" speed="10.06" angle="154.19" x="-1.58" y="-618.49"/>
        <vehicle id="zengguanglu_east_T2.6" eclass="HBEFA3/PC_G_EU4" CO2="0.00" CO="0.00" HC="0.00" NOx="0.00" PMx="0.00" fuel="0.00" electricity="0.00" noise="63.11" route="!zengguanglu_east_T2.6" type="vt_car" waiting="0.00" lane="E25_2" pos="61.74" speed="13.73" angle="270.03" x="-147.61" y="-105.72"/>
        <vehicle id="zengguanglu_east_T2.7" eclass="HBEFA3/PC_G_EU4" CO2="2624.72" CO="164.78" HC="0.81" NOx="1.20" PMx="0.07" fuel="837.22" electricity="0.00" noise="55.94" route="!zengguanglu_east_T2.7" type="vt_car" waiting="99.00" lane="E18_2" pos="67.80" speed="0.00" angle="269.96" x="39.90" y="-105.00"/>
        <vehicle id="zengguanglu_east_T2.8" eclass="HBEFA3/PC_G_EU4" CO2="5094.19" CO="94.74" HC="0.55" NOx="2.14" PMx="0.09" fuel="1624.81" electricity="0.00" noise="65.71" route="!zengguanglu_east_T2.8" type="vt_car" waiting="0.00" lane=":J16_17_0" pos="34.17" speed="8.58" angle="231.46" x="-0.63" y="-116.05"/>
        <vehicle id="zengguanglu_east_T2.9" eclass="HBEFA3/PC_G_EU4" CO2="4877.19" CO="121.45" HC="0.67" NOx="2.11" PMx="0.10" fuel="1555.61" electricity="0.00" noise="66.24" route="!zengguanglu_east_T2.9" type="vt_car" waiting="0.00" lane=":J16_15_1" pos="15.24" speed="5.90" angle="272.66" x="16.19" y="-107.29"/>
        <vehicle id="zengguanglu_west_T2.4" eclass="HBEFA3/PC_G_EU4" CO2="0.00" CO="0.00" HC="0.00" NOx="0.00" PMx="0.00" fuel="0.00" electricity="0.00" noise="61.05" route="!zengguanglu_west_T2.4" type="vt_car" waiting="0.00" lane="E21_2" pos="4.20" speed="11.46" angle="89.25" x="123.85" y="-109.92"/>
        <vehicle id="zengguanglu_west_T2.5" eclass="HBEFA3/PC_G_EU4" CO2="7605.12" CO="111.78" HC="0.69" NOx="3.22" PMx="0.15" fuel="2425.66" electricity="0.00" noise="68.98" route="!zengguanglu_west_T2.5" type="vt_car" waiting="0.00" lane="E20_2" pos="71.52" speed="12.48" angle="89.85" x="103.02" y="-110.75"/>